atomdata (written by ASE) 

35820 	 atoms 
1  atom types
0.0                    3930  xlo xhi
0.0      39.300000000000004  ylo yhi
0.0                     393  zlo zhi


Atoms 

     1   1                       0                       0                       0
     2   1      3.9300000000000002                       0                       0
     3   1      7.8600000000000003                       0                       0
     4   1                       0      3.9300000000000002                       0
     5   1      3.9300000000000002      3.9300000000000002                       0
     6   1      7.8600000000000003      3.9300000000000002                       0
     7   1                       0      7.8600000000000003                       0
     8   1      3.9300000000000002      7.8600000000000003                       0
     9   1      7.8600000000000003      7.8600000000000003                       0
    10   1                       0      11.790000000000001                       0
    11   1      3.9300000000000002      11.790000000000001                       0
    12   1      7.8600000000000003      11.790000000000001                       0
    13   1                       0      15.720000000000001                       0
    14   1      3.9300000000000002      15.720000000000001                       0
    15   1      7.8600000000000003      15.720000000000001                       0
    16   1                       0      19.650000000000002                       0
    17   1      3.9300000000000002      19.650000000000002                       0
    18   1      7.8600000000000003      19.650000000000002                       0
    19   1                       0      23.580000000000002                       0
    20   1      3.9300000000000002      23.580000000000002                       0
    21   1      7.8600000000000003      23.580000000000002                       0
    22   1                       0      27.510000000000002                       0
    23   1      3.9300000000000002      27.510000000000002                       0
    24   1      7.8600000000000003      27.510000000000002                       0
    25   1                       0      31.440000000000001                       0
    26   1      3.9300000000000002      31.440000000000001                       0
    27   1      7.8600000000000003      31.440000000000001                       0
    28   1                       0      35.370000000000005                       0
    29   1      3.9300000000000002      35.370000000000005                       0
    30   1      7.8600000000000003      35.370000000000005                       0
    31   1                       0                       0      3.9300000000000006
    32   1      3.9300000000000002                       0      3.9300000000000006
    33   1      7.8600000000000003                       0      3.9300000000000006
    34   1                       0      3.9300000000000002      3.9300000000000006
    35   1      3.9300000000000002      3.9300000000000002      3.9300000000000006
    36   1      7.8600000000000003      3.9300000000000002      3.9300000000000006
    37   1                       0      7.8600000000000003      3.9300000000000006
    38   1      3.9300000000000002      7.8600000000000003      3.9300000000000006
    39   1      7.8600000000000003      7.8600000000000003      3.9300000000000006
    40   1                       0      11.790000000000001      3.9300000000000006
    41   1      3.9300000000000002      11.790000000000001      3.9300000000000006
    42   1      7.8600000000000003      11.790000000000001      3.9300000000000006
    43   1                       0      15.720000000000001      3.9300000000000006
    44   1      3.9300000000000002      15.720000000000001      3.9300000000000006
    45   1      7.8600000000000003      15.720000000000001      3.9300000000000006
    46   1                       0      19.650000000000002      3.9300000000000006
    47   1      3.9300000000000002      19.650000000000002      3.9300000000000006
    48   1      7.8600000000000003      19.650000000000002      3.9300000000000006
    49   1                       0      23.580000000000002      3.9300000000000006
    50   1      3.9300000000000002      23.580000000000002      3.9300000000000006
    51   1      7.8600000000000003      23.580000000000002      3.9300000000000006
    52   1                       0      27.510000000000002      3.9300000000000006
    53   1      3.9300000000000002      27.510000000000002      3.9300000000000006
    54   1      7.8600000000000003      27.510000000000002      3.9300000000000006
    55   1                       0      31.440000000000001      3.9300000000000006
    56   1      3.9300000000000002      31.440000000000001      3.9300000000000006
    57   1      7.8600000000000003      31.440000000000001      3.9300000000000006
    58   1                       0      35.370000000000005      3.9300000000000006
    59   1      3.9300000000000002      35.370000000000005      3.9300000000000006
    60   1      7.8600000000000003      35.370000000000005      3.9300000000000006
    61   1                       0                       0      7.8600000000000012
    62   1      3.9300000000000002                       0      7.8600000000000012
    63   1      7.8600000000000003                       0      7.8600000000000012
    64   1                       0      3.9300000000000002      7.8600000000000012
    65   1      3.9300000000000002      3.9300000000000002      7.8600000000000012
    66   1      7.8600000000000003      3.9300000000000002      7.8600000000000012
    67   1                       0      7.8600000000000003      7.8600000000000012
    68   1      3.9300000000000002      7.8600000000000003      7.8600000000000012
    69   1      7.8600000000000003      7.8600000000000003      7.8600000000000012
    70   1                       0      11.790000000000001      7.8600000000000012
    71   1      3.9300000000000002      11.790000000000001      7.8600000000000012
    72   1      7.8600000000000003      11.790000000000001      7.8600000000000012
    73   1                       0      15.720000000000001      7.8600000000000012
    74   1      3.9300000000000002      15.720000000000001      7.8600000000000012
    75   1      7.8600000000000003      15.720000000000001      7.8600000000000012
    76   1                       0      19.650000000000002      7.8600000000000012
    77   1      3.9300000000000002      19.650000000000002      7.8600000000000012
    78   1      7.8600000000000003      19.650000000000002      7.8600000000000012
    79   1                       0      23.580000000000002      7.8600000000000012
    80   1      3.9300000000000002      23.580000000000002      7.8600000000000012
    81   1      7.8600000000000003      23.580000000000002      7.8600000000000012
    82   1                       0      27.510000000000002      7.8600000000000012
    83   1      3.9300000000000002      27.510000000000002      7.8600000000000012
    84   1      7.8600000000000003      27.510000000000002      7.8600000000000012
    85   1                       0      31.440000000000001      7.8600000000000012
    86   1      3.9300000000000002      31.440000000000001      7.8600000000000012
    87   1      7.8600000000000003      31.440000000000001      7.8600000000000012
    88   1                       0      35.370000000000005      7.8600000000000012
    89   1      3.9300000000000002      35.370000000000005      7.8600000000000012
    90   1      7.8600000000000003      35.370000000000005      7.8600000000000012
    91   1                       0                       0      11.790000000000003
    92   1      3.9300000000000002                       0      11.790000000000003
    93   1      7.8600000000000003                       0      11.790000000000003
    94   1                       0      3.9300000000000002      11.790000000000003
    95   1      3.9300000000000002      3.9300000000000002      11.790000000000003
    96   1      7.8600000000000003      3.9300000000000002      11.790000000000003
    97   1                       0      7.8600000000000003      11.790000000000003
    98   1      3.9300000000000002      7.8600000000000003      11.790000000000003
    99   1      7.8600000000000003      7.8600000000000003      11.790000000000003
   100   1                       0      11.790000000000001      11.790000000000003
   101   1      3.9300000000000002      11.790000000000001      11.790000000000003
   102   1      7.8600000000000003      11.790000000000001      11.790000000000003
   103   1                       0      15.720000000000001      11.790000000000003
   104   1      3.9300000000000002      15.720000000000001      11.790000000000003
   105   1      7.8600000000000003      15.720000000000001      11.790000000000003
   106   1                       0      19.650000000000002      11.790000000000003
   107   1      3.9300000000000002      19.650000000000002      11.790000000000003
   108   1      7.8600000000000003      19.650000000000002      11.790000000000003
   109   1                       0      23.580000000000002      11.790000000000003
   110   1      3.9300000000000002      23.580000000000002      11.790000000000003
   111   1      7.8600000000000003      23.580000000000002      11.790000000000003
   112   1                       0      27.510000000000002      11.790000000000003
   113   1      3.9300000000000002      27.510000000000002      11.790000000000003
   114   1      7.8600000000000003      27.510000000000002      11.790000000000003
   115   1                       0      31.440000000000001      11.790000000000003
   116   1      3.9300000000000002      31.440000000000001      11.790000000000003
   117   1      7.8600000000000003      31.440000000000001      11.790000000000003
   118   1                       0      35.370000000000005      11.790000000000003
   119   1      3.9300000000000002      35.370000000000005      11.790000000000003
   120   1      7.8600000000000003      35.370000000000005      11.790000000000003
   121   1                       0                       0      15.720000000000002
   122   1      3.9300000000000002                       0      15.720000000000002
   123   1      7.8600000000000003                       0      15.720000000000002
   124   1                       0      3.9300000000000002      15.720000000000002
   125   1      3.9300000000000002      3.9300000000000002      15.720000000000002
   126   1      7.8600000000000003      3.9300000000000002      15.720000000000002
   127   1                       0      7.8600000000000003      15.720000000000002
   128   1      3.9300000000000002      7.8600000000000003      15.720000000000002
   129   1      7.8600000000000003      7.8600000000000003      15.720000000000002
   130   1                       0      11.790000000000001      15.720000000000002
   131   1      3.9300000000000002      11.790000000000001      15.720000000000002
   132   1      7.8600000000000003      11.790000000000001      15.720000000000002
   133   1                       0      15.720000000000001      15.720000000000002
   134   1      3.9300000000000002      15.720000000000001      15.720000000000002
   135   1      7.8600000000000003      15.720000000000001      15.720000000000002
   136   1                       0      19.650000000000002      15.720000000000002
   137   1      3.9300000000000002      19.650000000000002      15.720000000000002
   138   1      7.8600000000000003      19.650000000000002      15.720000000000002
   139   1                       0      23.580000000000002      15.720000000000002
   140   1      3.9300000000000002      23.580000000000002      15.720000000000002
   141   1      7.8600000000000003      23.580000000000002      15.720000000000002
   142   1                       0      27.510000000000002      15.720000000000002
   143   1      3.9300000000000002      27.510000000000002      15.720000000000002
   144   1      7.8600000000000003      27.510000000000002      15.720000000000002
   145   1                       0      31.440000000000001      15.720000000000002
   146   1      3.9300000000000002      31.440000000000001      15.720000000000002
   147   1      7.8600000000000003      31.440000000000001      15.720000000000002
   148   1                       0      35.370000000000005      15.720000000000002
   149   1      3.9300000000000002      35.370000000000005      15.720000000000002
   150   1      7.8600000000000003      35.370000000000005      15.720000000000002
   151   1                       0                       0      19.650000000000002
   152   1      3.9300000000000002                       0      19.650000000000002
   153   1      7.8600000000000003                       0      19.650000000000002
   154   1                       0      3.9300000000000002      19.650000000000002
   155   1      3.9300000000000002      3.9300000000000002      19.650000000000002
   156   1      7.8600000000000003      3.9300000000000002      19.650000000000002
   157   1                       0      7.8600000000000003      19.650000000000002
   158   1      3.9300000000000002      7.8600000000000003      19.650000000000002
   159   1      7.8600000000000003      7.8600000000000003      19.650000000000002
   160   1                       0      11.790000000000001      19.650000000000002
   161   1      3.9300000000000002      11.790000000000001      19.650000000000002
   162   1      7.8600000000000003      11.790000000000001      19.650000000000002
   163   1                       0      15.720000000000001      19.650000000000002
   164   1      3.9300000000000002      15.720000000000001      19.650000000000002
   165   1      7.8600000000000003      15.720000000000001      19.650000000000002
   166   1                       0      19.650000000000002      19.650000000000002
   167   1      3.9300000000000002      19.650000000000002      19.650000000000002
   168   1      7.8600000000000003      19.650000000000002      19.650000000000002
   169   1                       0      23.580000000000002      19.650000000000002
   170   1      3.9300000000000002      23.580000000000002      19.650000000000002
   171   1      7.8600000000000003      23.580000000000002      19.650000000000002
   172   1                       0      27.510000000000002      19.650000000000002
   173   1      3.9300000000000002      27.510000000000002      19.650000000000002
   174   1      7.8600000000000003      27.510000000000002      19.650000000000002
   175   1                       0      31.440000000000001      19.650000000000002
   176   1      3.9300000000000002      31.440000000000001      19.650000000000002
   177   1      7.8600000000000003      31.440000000000001      19.650000000000002
   178   1                       0      35.370000000000005      19.650000000000002
   179   1      3.9300000000000002      35.370000000000005      19.650000000000002
   180   1      7.8600000000000003      35.370000000000005      19.650000000000002
   181   1                       0                       0      23.580000000000005
   182   1      3.9300000000000002                       0      23.580000000000005
   183   1      7.8600000000000003                       0      23.580000000000005
   184   1                       0      3.9300000000000002      23.580000000000005
   185   1      3.9300000000000002      3.9300000000000002      23.580000000000005
   186   1      7.8600000000000003      3.9300000000000002      23.580000000000005
   187   1                       0      7.8600000000000003      23.580000000000005
   188   1      3.9300000000000002      7.8600000000000003      23.580000000000005
   189   1      7.8600000000000003      7.8600000000000003      23.580000000000005
   190   1                       0      11.790000000000001      23.580000000000005
   191   1      3.9300000000000002      11.790000000000001      23.580000000000005
   192   1      7.8600000000000003      11.790000000000001      23.580000000000005
   193   1                       0      15.720000000000001      23.580000000000005
   194   1      3.9300000000000002      15.720000000000001      23.580000000000005
   195   1      7.8600000000000003      15.720000000000001      23.580000000000005
   196   1                       0      19.650000000000002      23.580000000000005
   197   1      3.9300000000000002      19.650000000000002      23.580000000000005
   198   1      7.8600000000000003      19.650000000000002      23.580000000000005
   199   1                       0      23.580000000000002      23.580000000000005
   200   1      3.9300000000000002      23.580000000000002      23.580000000000005
   201   1      7.8600000000000003      23.580000000000002      23.580000000000005
   202   1                       0      27.510000000000002      23.580000000000005
   203   1      3.9300000000000002      27.510000000000002      23.580000000000005
   204   1      7.8600000000000003      27.510000000000002      23.580000000000005
   205   1                       0      31.440000000000001      23.580000000000005
   206   1      3.9300000000000002      31.440000000000001      23.580000000000005
   207   1      7.8600000000000003      31.440000000000001      23.580000000000005
   208   1                       0      35.370000000000005      23.580000000000005
   209   1      3.9300000000000002      35.370000000000005      23.580000000000005
   210   1      7.8600000000000003      35.370000000000005      23.580000000000005
   211   1                       0                       0      27.510000000000002
   212   1      3.9300000000000002                       0      27.510000000000002
   213   1      7.8600000000000003                       0      27.510000000000002
   214   1                       0      3.9300000000000002      27.510000000000002
   215   1      3.9300000000000002      3.9300000000000002      27.510000000000002
   216   1      7.8600000000000003      3.9300000000000002      27.510000000000002
   217   1                       0      7.8600000000000003      27.510000000000002
   218   1      3.9300000000000002      7.8600000000000003      27.510000000000002
   219   1      7.8600000000000003      7.8600000000000003      27.510000000000002
   220   1                       0      11.790000000000001      27.510000000000002
   221   1      3.9300000000000002      11.790000000000001      27.510000000000002
   222   1      7.8600000000000003      11.790000000000001      27.510000000000002
   223   1                       0      15.720000000000001      27.510000000000002
   224   1      3.9300000000000002      15.720000000000001      27.510000000000002
   225   1      7.8600000000000003      15.720000000000001      27.510000000000002
   226   1                       0      19.650000000000002      27.510000000000002
   227   1      3.9300000000000002      19.650000000000002      27.510000000000002
   228   1      7.8600000000000003      19.650000000000002      27.510000000000002
   229   1                       0      23.580000000000002      27.510000000000002
   230   1      3.9300000000000002      23.580000000000002      27.510000000000002
   231   1      7.8600000000000003      23.580000000000002      27.510000000000002
   232   1                       0      27.510000000000002      27.510000000000002
   233   1      3.9300000000000002      27.510000000000002      27.510000000000002
   234   1      7.8600000000000003      27.510000000000002      27.510000000000002
   235   1                       0      31.440000000000001      27.510000000000002
   236   1      3.9300000000000002      31.440000000000001      27.510000000000002
   237   1      7.8600000000000003      31.440000000000001      27.510000000000002
   238   1                       0      35.370000000000005      27.510000000000002
   239   1      3.9300000000000002      35.370000000000005      27.510000000000002
   240   1      7.8600000000000003      35.370000000000005      27.510000000000002
   241   1                       0                       0      31.440000000000005
   242   1      3.9300000000000002                       0      31.440000000000005
   243   1      7.8600000000000003                       0      31.440000000000005
   244   1                       0      3.9300000000000002      31.440000000000005
   245   1      3.9300000000000002      3.9300000000000002      31.440000000000005
   246   1      7.8600000000000003      3.9300000000000002      31.440000000000005
   247   1                       0      7.8600000000000003      31.440000000000005
   248   1      3.9300000000000002      7.8600000000000003      31.440000000000005
   249   1      7.8600000000000003      7.8600000000000003      31.440000000000005
   250   1                       0      11.790000000000001      31.440000000000005
   251   1      3.9300000000000002      11.790000000000001      31.440000000000005
   252   1      7.8600000000000003      11.790000000000001      31.440000000000005
   253   1                       0      15.720000000000001      31.440000000000005
   254   1      3.9300000000000002      15.720000000000001      31.440000000000005
   255   1      7.8600000000000003      15.720000000000001      31.440000000000005
   256   1                       0      19.650000000000002      31.440000000000005
   257   1      3.9300000000000002      19.650000000000002      31.440000000000005
   258   1      7.8600000000000003      19.650000000000002      31.440000000000005
   259   1                       0      23.580000000000002      31.440000000000005
   260   1      3.9300000000000002      23.580000000000002      31.440000000000005
   261   1      7.8600000000000003      23.580000000000002      31.440000000000005
   262   1                       0      27.510000000000002      31.440000000000005
   263   1      3.9300000000000002      27.510000000000002      31.440000000000005
   264   1      7.8600000000000003      27.510000000000002      31.440000000000005
   265   1                       0      31.440000000000001      31.440000000000005
   266   1      3.9300000000000002      31.440000000000001      31.440000000000005
   267   1      7.8600000000000003      31.440000000000001      31.440000000000005
   268   1                       0      35.370000000000005      31.440000000000005
   269   1      3.9300000000000002      35.370000000000005      31.440000000000005
   270   1      7.8600000000000003      35.370000000000005      31.440000000000005
   271   1                       0                       0      35.370000000000012
   272   1      3.9300000000000002                       0      35.370000000000012
   273   1      7.8600000000000003                       0      35.370000000000012
   274   1                       0      3.9300000000000002      35.370000000000012
   275   1      3.9300000000000002      3.9300000000000002      35.370000000000012
   276   1      7.8600000000000003      3.9300000000000002      35.370000000000012
   277   1                       0      7.8600000000000003      35.370000000000012
   278   1      3.9300000000000002      7.8600000000000003      35.370000000000012
   279   1      7.8600000000000003      7.8600000000000003      35.370000000000012
   280   1                       0      11.790000000000001      35.370000000000012
   281   1      3.9300000000000002      11.790000000000001      35.370000000000012
   282   1      7.8600000000000003      11.790000000000001      35.370000000000012
   283   1                       0      15.720000000000001      35.370000000000012
   284   1      3.9300000000000002      15.720000000000001      35.370000000000012
   285   1      7.8600000000000003      15.720000000000001      35.370000000000012
   286   1                       0      19.650000000000002      35.370000000000012
   287   1      3.9300000000000002      19.650000000000002      35.370000000000012
   288   1      7.8600000000000003      19.650000000000002      35.370000000000012
   289   1                       0      23.580000000000002      35.370000000000012
   290   1      3.9300000000000002      23.580000000000002      35.370000000000012
   291   1      7.8600000000000003      23.580000000000002      35.370000000000012
   292   1                       0      27.510000000000002      35.370000000000012
   293   1      3.9300000000000002      27.510000000000002      35.370000000000012
   294   1      7.8600000000000003      27.510000000000002      35.370000000000012
   295   1                       0      31.440000000000001      35.370000000000012
   296   1      3.9300000000000002      31.440000000000001      35.370000000000012
   297   1      7.8600000000000003      31.440000000000001      35.370000000000012
   298   1                       0      35.370000000000005      35.370000000000012
   299   1      3.9300000000000002      35.370000000000005      35.370000000000012
   300   1      7.8600000000000003      35.370000000000005      35.370000000000012
   301   1                       0                       0      39.300000000000004
   302   1      3.9300000000000002                       0      39.300000000000004
   303   1      7.8600000000000003                       0      39.300000000000004
   304   1                       0      3.9300000000000002      39.300000000000004
   305   1      3.9300000000000002      3.9300000000000002      39.300000000000004
   306   1      7.8600000000000003      3.9300000000000002      39.300000000000004
   307   1                       0      7.8600000000000003      39.300000000000004
   308   1      3.9300000000000002      7.8600000000000003      39.300000000000004
   309   1      7.8600000000000003      7.8600000000000003      39.300000000000004
   310   1                       0      11.790000000000001      39.300000000000004
   311   1      3.9300000000000002      11.790000000000001      39.300000000000004
   312   1      7.8600000000000003      11.790000000000001      39.300000000000004
   313   1                       0      15.720000000000001      39.300000000000004
   314   1      3.9300000000000002      15.720000000000001      39.300000000000004
   315   1      7.8600000000000003      15.720000000000001      39.300000000000004
   316   1                       0      19.650000000000002      39.300000000000004
   317   1      3.9300000000000002      19.650000000000002      39.300000000000004
   318   1      7.8600000000000003      19.650000000000002      39.300000000000004
   319   1                       0      23.580000000000002      39.300000000000004
   320   1      3.9300000000000002      23.580000000000002      39.300000000000004
   321   1      7.8600000000000003      23.580000000000002      39.300000000000004
   322   1                       0      27.510000000000002      39.300000000000004
   323   1      3.9300000000000002      27.510000000000002      39.300000000000004
   324   1      7.8600000000000003      27.510000000000002      39.300000000000004
   325   1                       0      31.440000000000001      39.300000000000004
   326   1      3.9300000000000002      31.440000000000001      39.300000000000004
   327   1      7.8600000000000003      31.440000000000001      39.300000000000004
   328   1                       0      35.370000000000005      39.300000000000004
   329   1      3.9300000000000002      35.370000000000005      39.300000000000004
   330   1      7.8600000000000003      35.370000000000005      39.300000000000004
   331   1                       0                       0      43.230000000000004
   332   1      3.9300000000000002                       0      43.230000000000004
   333   1      7.8600000000000003                       0      43.230000000000004
   334   1                       0      3.9300000000000002      43.230000000000004
   335   1      3.9300000000000002      3.9300000000000002      43.230000000000004
   336   1      7.8600000000000003      3.9300000000000002      43.230000000000004
   337   1                       0      7.8600000000000003      43.230000000000004
   338   1      3.9300000000000002      7.8600000000000003      43.230000000000004
   339   1      7.8600000000000003      7.8600000000000003      43.230000000000004
   340   1                       0      11.790000000000001      43.230000000000004
   341   1      3.9300000000000002      11.790000000000001      43.230000000000004
   342   1      7.8600000000000003      11.790000000000001      43.230000000000004
   343   1                       0      15.720000000000001      43.230000000000004
   344   1      3.9300000000000002      15.720000000000001      43.230000000000004
   345   1      7.8600000000000003      15.720000000000001      43.230000000000004
   346   1                       0      19.650000000000002      43.230000000000004
   347   1      3.9300000000000002      19.650000000000002      43.230000000000004
   348   1      7.8600000000000003      19.650000000000002      43.230000000000004
   349   1                       0      23.580000000000002      43.230000000000004
   350   1      3.9300000000000002      23.580000000000002      43.230000000000004
   351   1      7.8600000000000003      23.580000000000002      43.230000000000004
   352   1                       0      27.510000000000002      43.230000000000004
   353   1      3.9300000000000002      27.510000000000002      43.230000000000004
   354   1      7.8600000000000003      27.510000000000002      43.230000000000004
   355   1                       0      31.440000000000001      43.230000000000004
   356   1      3.9300000000000002      31.440000000000001      43.230000000000004
   357   1      7.8600000000000003      31.440000000000001      43.230000000000004
   358   1                       0      35.370000000000005      43.230000000000004
   359   1      3.9300000000000002      35.370000000000005      43.230000000000004