LAMMPS (3 Mar 2020)
  using 8 OpenMP thread(s) per MPI task
# shear viscosity calculation

units		real
variable	T equal 86.4956
variable	V equal vol
variable	dt equal 4.0
variable	p equal 400     # correlation length
variable	s equal 50       # sample interval
variable	d equal $p*$s   # dump interval
variable	d equal 400*$s   
variable	d equal 400*50   


# convert from LAMMPS real units to SI

variable	kB equal 1.3806504e-23
variable	atm2Pa equal 101325.0
variable	A2m equal 1.0e-10
variable	fs2s equal 1.0e-15
variable	convert equal ${atm2Pa}*${atm2Pa}*${fs2s}*${A2m}*${A2m}*${A2m}
variable	convert equal 101325*${atm2Pa}*${fs2s}*${A2m}*${A2m}*${A2m}
variable	convert equal 101325*101325*${fs2s}*${A2m}*${A2m}*${A2m}
variable	convert equal 101325*101325*1e-15*${A2m}*${A2m}*${A2m}
variable	convert equal 101325*101325*1e-15*1e-10*${A2m}*${A2m}
variable	convert equal 101325*101325*1e-15*1e-10*1e-10*${A2m}
variable	convert equal 101325*101325*1e-15*1e-10*1e-10*1e-10

# setup problem

dimension	3
boundary	p p p
lattice		fcc 5.376 orient x 1 0 0 orient y 0 1 0 orient z 0 0 1
Lattice spacing in x,y,z = 5.376 5.376 5.376
region		box block 0 10 0 10 0 10
create_box	1 box
Created orthogonal box = (0 0 0) to (53.76 53.76 53.76)
  1 by 2 by 2 MPI processor grid
create_atoms	1 box
Created 4000 atoms
  create_atoms CPU = 0.00247622 secs
mass		1 39.948
pair_style	lj/cut 13.0
pair_coeff	* * 0.2381 3.405
timestep	${dt}
timestep	4
thermo		$d
thermo		20000


#equilibration and thermalization

velocity	all create $T 102486 mom yes rot yes dist gaussian
velocity	all create 86.4956 102486 mom yes rot yes dist gaussian
fix		NVT all nvt temp $T $T 10 drag 0.2
fix		NVT all nvt temp 86.4956 $T 10 drag 0.2
fix		NVT all nvt temp 86.4956 86.4956 10 drag 0.2
run		8000
Neighbor list info ...
  update every 1 steps, delay 10 steps, check yes
  max neighbors/atom: 2000, page size: 100000
  master list distance cutoff = 15
  ghost atom cutoff = 15
  binsize = 7.5, bins = 8 8 8
  1 neighbor lists, perpetual/occasional/extra = 1 0 0
  (1) pair lj/cut, perpetual
      attributes: half, newton on
      pair build: half/bin/atomonly/newton
      stencil: half/bin/3d/newton
      bin: standard
Per MPI rank memory allocation (min/avg/max) = 9.927 | 9.927 | 9.927 Mbytes
Step Temp E_pair E_mol TotEng Press 
       0      86.4956   -7902.3794            0   -6871.3294    -1231.146 
    8000     85.81548   -6969.7256            0   -5946.7829    1018.6814 
Loop time of 142.154 on 32 procs for 8000 steps with 4000 atoms

Performance: 19.449 ns/day, 1.234 hours/ns, 56.277 timesteps/s
65.2% CPU use with 4 MPI tasks x 8 OpenMP threads

MPI task timing breakdown:
Section |  min time  |  avg time  |  max time  |%varavg| %total
---------------------------------------------------------------
Pair    | 16.856     | 30.024     | 47.766     | 241.3 | 21.12
Neigh   | 0.62854    | 1.215      | 2.0904     |  55.9 |  0.85
Comm    | 72.925     | 86.746     | 98.759     | 121.6 | 61.02
Output  | 0.00042796 | 0.00046676 | 0.00054812 |   0.0 |  0.00
Modify  | 12.15      | 17.511     | 21.544     |  81.1 | 12.32
Other   |            | 6.657      |            |       |  4.68

Nlocal:    1000 ave 1014 max 983 min
Histogram: 1 0 0 0 0 1 1 0 0 1
Nghost:    5835 ave 5852 max 5821 min
Histogram: 1 0 0 1 1 0 0 0 0 1
Neighs:    181026 ave 188382 max 174544 min
Histogram: 1 0 0 0 2 0 0 0 0 1

Total # of neighbors = 724106
Ave neighs/atom = 181.026
Neighbor list builds = 169
Dangerous builds = 0

# viscosity calculation

reset_timestep 	0

compute 	stress all stress/atom NULL
compute		pressure all pressure thermo_temp

variable 	pxy equal pxy
variable	pxz equal pxz
variable	pyz equal pyz
variable	Pxx equal c_pressure[1]
variable	Pyy equal c_pressure[2]
variable	Pzz equal c_pressure[3]
variable	Pxy equal c_pressure[4]
variable	Pxz equal c_pressure[5]
variable	Pyz equal c_pressure[6]
variable	pressure_timestep equal step

fix 		extra all print 5 "${pressure_timestep} ${Pxx} ${Pyy} ${Pzz} ${pxy} ${pxz} ${pyz}" append pressure.xyz

variable	pxy equal pxy
variable	pxz equal pxz
variable	pyz equal pyz
fix		SS all ave/correlate $s $p $d v_pxy v_pxz v_pyz type auto file S0St.dat ave running
fix		SS all ave/correlate 50 $p $d v_pxy v_pxz v_pyz type auto file S0St.dat ave running
fix		SS all ave/correlate 50 400 $d v_pxy v_pxz v_pyz type auto file S0St.dat ave running
fix		SS all ave/correlate 50 400 20000 v_pxy v_pxz v_pyz type auto file S0St.dat ave running
variable	scale equal ${convert}/(${kB}*$T)*$V*$s*${dt}
variable	scale equal 1.0266755625e-35/(${kB}*$T)*$V*$s*${dt}
variable	scale equal 1.0266755625e-35/(1.3806504e-23*$T)*$V*$s*${dt}
variable	scale equal 1.0266755625e-35/(1.3806504e-23*86.4956)*$V*$s*${dt}
variable	scale equal 1.0266755625e-35/(1.3806504e-23*86.4956)*155373.797376*$s*${dt}
variable	scale equal 1.0266755625e-35/(1.3806504e-23*86.4956)*155373.797376*50*${dt}
variable	scale equal 1.0266755625e-35/(1.3806504e-23*86.4956)*155373.797376*50*4
variable	v11 equal trap(f_SS[3])*${scale}
variable	v11 equal trap(f_SS[3])*2.67154972450291e-07
variable	v22 equal trap(f_SS[4])*${scale}
variable	v22 equal trap(f_SS[4])*2.67154972450291e-07
variable	v33 equal trap(f_SS[5])*${scale}
variable	v33 equal trap(f_SS[5])*2.67154972450291e-07
thermo_style	custom step temp press v_pxy v_pxz v_pyz c_pressure[*]
#dump		dmp all custom 500 test_*.xyz id c_stress[*]
#dump		dmp all custom 500 test_*.xyz c_pressure[*]
run 		20000
0 1003.49211056025 1025.87035595538 1026.68180741078 13.1492218544205 14.3762690840324 4.31523912208885
Per MPI rank memory allocation (min/avg/max) = 15.93 | 15.93 | 15.93 Mbytes
Step Temp Press v_pxy v_pxz v_pyz c_pressure[1] c_pressure[2] c_pressure[3] c_pressure[4] c_pressure[5] c_pressure[6] 
       0     85.81548    1018.6814    13.149222    14.376269    4.3152391    1003.4921    1025.8704    1026.6818    13.149222    14.376269    4.3152391 
5 1007.28390474989 1042.45115775196 1038.16139600917 13.7048098210113 18.556271738858 -1.55912825534148
10 991.343610811132 1039.59223003089 1031.63727333599 13.5658554615265 19.1291372853732 -2.75825287331494
15 989.279103143716 1048.13110312053 1040.44857104769 10.5830066485523 17.3547065239804 1.57589661850425
20 967.317325482517 1030.31349854313 1025.74509091618 3.90660553250929 15.0377826100253 7.070171438819
25 961.207354521247 1022.83551797459 1022.06972893989 -5.29793943216552 14.1305628509635 10.1698237605147
30 951.158291964093 1006.46546186951 1008.15910506286 -13.0207986589647 14.97643950981 7.60957055202781
35 953.406478988397 1000.76267206709 1003.73961682377 -16.6039717993983 16.0241509111519 1.09390044972489
40 953.821547765645 993.376814508363 996.290443427675 -15.9377111860977 15.4226154416696 -5.47697442166316
45 961.617239813526 992.828820812166 994.292492010167 -12.6199731350736 13.0207376140948 -9.08211266634793
50 976.332593192109 996.197752606235 994.822442543334 -7.44827195279451 9.24099254968455 -9.17175443488769
55 992.701920242482 997.520865994078 992.779038920145 -1.23299113168552 4.31556075293005 -6.70451603356673
60 1020.31819800104 1007.07946788022 999.650301586198 4.47162841812343 -1.08530660436104 -3.71457147217471
65 1031.88488436786 999.788314387676 990.129466956821 8.19155718423499 -5.48615972630428 -1.99215634182806
70 1056.88478739795 1008.42707542382 996.075220851258 7.04778032584545 -7.57784043328571 -3.71263934683625
75 1068.38951654669 1009.96290661262 991.160169459527 0.556132145781637 -6.59601877783949 -8.30305908068942
80 1092.62470594049 1034.78946136743 1004.60616358563 -11.5053154761252 -2.27735973012221 -15.2357915180738
85 1094.59128700647 1046.50612148616 1002.06848649258 -25.6134126210549 3.02872405629868 -22.3487194866934
90 1098.3635348088 1067.85429777739 1009.93699300374 -39.2138138255241 5.54031776310467 -28.8376844506062
95 1085.84692834382 1075.98911009944 1007.99346349121 -51.344874565386 2.72517983116166 -35.178551000804
100 1078.02868063099 1086.92278682584 1015.37053837555 -60.07896631253 -4.38786018428196 -41.5394440617387
105 1064.78682703133 1085.2173362959 1020.39460119982 -63.2849831054518 -12.7975828451221 -45.8054500096062
110 1054.60609238211 1075.50724906109 1028.57580032233 -60.5214722781483 -18.1762454888122 -44.0470428162772
115 1055.43308213429 1066.32552794177 1045.1893941183 -53.7477686601426 -17.9673653414662 -35.218656628376
120 1046.30200595749 1042.38747935697 1047.65287050188 -44.4158193279482 -13.1505602168745 -23.1653409386836
125 1054.6907856392 1039.40270839555 1065.33728375736 -32.8492648665365 -6.07933413763693 -12.9122006176172
130 1045.73975243174 1028.54939659417 1065.02876703469 -19.4766723109077 0.479003967735803 -6.92359006289063
135 1052.72997540746 1040.8273991915 1079.40339786626 -7.17905889739689 8.28325194148825 -6.83594721474419
140 1038.85972682296 1034.33744378984 1068.85476991419 1.66091314427984 17.9683436047268 -10.2141987678335
145 1048.02661217032 1046.12705485879 1076.15627699381 4.67867506232008 30.5013575716971 -15.802594583956
150 1041.53026421248 1037.78098171569 1062.98729585589 4.94486161613388 40.7099641799974 -20.6584722752508
155 1041.66866046249 1032.48231717161 1055.15186469978 5.67092794882712 44.6270935928961 -24.9880586603436
160 1037.00001078259 1020.70753754041 1044.83835347203 8.99047692387446 40.2746080998356 -28.4731479308031
165 1023.80765848772 1000.10168350467 1030.69020566825 14.1390837391446 30.11715087165 -30.3723523668235
170 1017.74353369442 987.466580651844 1027.5635401138 19.1925499104864 19.3650079751866 -30.5621100294397
175 998.590260918153 963.563062482327 1011.00150894161 23.022995580932 11.2243109795598 -27.8928313014505
180 996.284241667144 958.532393823219 1008.48296520687 24.8033836345038 9.25221552967467 -23.3601461245256
185 984.514327855678 945.607887349894 991.293038901586 23.6052858122309 11.5256583264912 -17.9177829967854
190 994.808084325116 957.539967688337 992.993954999537 18.3891375599536 16.5672051108784 -16.1861932409362
195 985.91149993195 954.966370550993 976.856351541998 9.99242707791077 19.6550963482259 -19.0358264807808
200 995.398391978459 977.638793297301 984.425581842343 0.129611479862486 21.2762698806081 -27.5507828662175
205 987.293733872567 989.566878849706 980.000921925801 -9.16346996487278 21.5191379251368 -37.2898541170189
210 987.011592702924 1013.56412521199 987.024220615714 -18.0586270606774 21.0637238439881 -43.661376345376
215 977.997306439454 1027.4596450289 985.497501212478 -27.3367428600456 18.3983093718409 -41.6460643830294
220 982.283645579359 1050.76518817934 997.332299369677 -36.7838191935954 13.9923750557541 -31.2953664006773
225 982.338696953956 1064.30652160383 1004.25504225335 -45.857695435278 9.71119721390209 -16.1270622831244
230 989.607021915739 1078.18375896623 1016.8182879721 -52.7880070878682 7.4989261062893 -2.33432598187569
235 995.046438000322 1083.10540995797 1024.22776681773 -55.5935250210734 6.69281952515335 5.31258173945407
240 997.333622225109 1078.94632908645 1023.87946931503 -53.0518522754138 5.35415695351568 4.13133075375011
245 1003.72290455818 1074.95825718417 1024.25384946106 -46.5521130983662 2.42088420123533 -3.86809486195877
250 998.505218575121 1057.79618178777 1012.72335380661 -39.383790818529 -1.09089036299021 -13.3842646420015
255 1007.66225033966 1057.22834714392 1018.90839737031 -34.9862353845001 -2.57592540594269 -20.3253066924146
260 998.716978754225 1040.21847754989 1008.23225723631 -34.3276030535212 -0.0614526388076739 -22.0870814480025
265 1006.78752508483 1044.53582087693 1013.25892686398 -37.7577465074573 5.93581705531552 -19.2798963916516
270 1004.97202118508 1042.80153512127 1004.31464151238 -43.4881411666518 12.0988875962074 -14.3186652120908
275 1018.76116334349 1062.63088778809 1008.9284373952 -51.1504922396474 14.6445209272825 -10.3319689335512
280 1018.05141076992 1070.74901946185 1000.12349105807 -58.2971431607264 11.9287392323217 -8.04380472991308
285 1023.32336244843 1085.18694760521 1002.16858231569 -63.3888947991442 4.8155843885801 -7.58215278689077
290 1018.22823766411 1086.53840269249 998.738599213711 -64.7386201536724 -4.56151141372687 -7.96234146097158
295 1010.69273987875 1081.68454536581 998.325843501647 -61.2466448357235 -13.2910319558784 -8.52884706303079
300 1001.94111080102 1071.0201501915 1001.2548145333 -52.8545960848723 -20.1942572951889 -8.30233651477496
305 990.96900747217 1052.51906219904 1003.28599628101 -41.2152581558419 -24.7916619667479 -6.26358643878876
310 989.068540985411 1038.08971910741 1013.70394651346 -28.6987552994509 -26.8099708598425 -2.97911787320882
315 985.482251581465 1018.92140718664 1019.32061534854 -17.6860749952296 -26.3348970935167 -0.3182969123659
320 998.769410151014 1016.35633136921 1038.02244304563 -10.3426184417197 -22.97401556283 1.12055679063925
325 997.329270899632 1000.15731497371 1035.32197153921 -6.67940141796074 -17.8137287275287 1.75550952337947
330 1017.33814218086 1006.43101931861 1049.17025848245 -7.93676649134353 -11.3516245714394 4.66247495862302
335 1022.1929399299 998.626114983721 1045.52447905932 -11.5408889954511 -5.75314796133071 10.306030355822
340 1041.72557702056 1006.09703232936 1057.88809279357 -17.1516521052662 -1.48257902591023 18.0116931366038
345 1049.49152958844 1003.98100280317 1061.98619088075 -20.9392353491513 2.34252903898035 25.4694036992868
350 1069.45032421816 1015.81159896496 1082.22338167413 -19.8665759529082 5.71353883709904 30.3612437240062
355 1079.08897387821 1020.27815205001 1093.74319993179 -13.1267365031634 7.97565379189953 31.4749195681985
360 1082.11892801742 1021.93866640838 1097.12916880881 -4.91132642059078 7.80700352059527 29.7023082871232
365 1082.93726748635 1024.33399147589 1094.77897768099 1.29330180617792 4.77812931656188 28.2462206842594
370 1069.99207681736 1015.1395942058 1076.16454286919 5.30944532215673 -0.157101944361979 30.0516481069096
375 1060.90668068168 1010.58242123292 1061.12263547349 8.65034318138832 -5.48580760291678 35.5327526774612
380 1032.35656134819 988.186686318371 1027.71486033871 11.9736214160484 -9.94841368690572 42.8944116325649
385 1022.86167573768 983.297329826991 1013.82942815719 14.8942634712054 -12.736453851014 48.5913178030968
390 1002.93512036599 967.903776577542 987.986240373551 16.6949898015162 -14.6700095289421 49.2177728795334
395 1009.79869072567 977.076603960487 986.313758124658 16.7228323870968 -15.654281520487 41.504989165575
400 1016.28922724814 985.871180037298 981.813177429447 15.2453143491726 -16.2932450198696 26.0346090778959
405 1035.18947831968 1007.86786154263 990.545979780024 13.5996684539968 -16.6432029959744 7.56893194813049
410 1048.42265301168 1026.18264223137 997.749794738781 13.1602743558488 -16.9585261864057 -8.40375934526306
415 1054.02376641764 1038.41762050005 1003.69644888172 14.533814406612 -17.4618300887436 -17.0275942202352
420 1058.82249773933 1049.98358735838 1015.96146896405 17.2659730741072 -18.1342305000576 -17.0130331873586
425 1045.60508113092 1041.77055225394 1016.42613590548 20.0224357774981 -18.2559033896024 -11.2749777547978
430 1046.27509532712 1045.26205091989 1033.20726486566 22.6350171767988 -17.0156787441808 -3.85500494551733
435 1033.16642915654 1031.82302220564 1034.17962688333 24.8394219254827 -14.1954026723653 0.831926827688938
440 1043.14813732716 1038.57045803438 1054.24779100024 27.1343420385792 -10.8187369630608 1.4708502962217
445 1033.03087132872 1024.07351883269 1050.05689285242 28.5381719443741 -7.66042361337887 -0.230694009133197
450 1040.40526914088 1026.65176314067 1059.38724953524 27.1322005407246 -6.62377185938844 -2.67584861201371
455 1030.37413577278 1013.79733903883 1047.01365098485 22.3643217776522 -7.24224226679635 -4.50891838413387
460 1035.93878029234 1019.37480012558 1047.45527671638 14.6797164838152 -8.21268216944412 -6.8887006800473
465 1031.46949890682 1018.30427443402 1035.02698061725 5.62008774397297 -7.40143975119693 -10.4391036494513
470 1044.64549925265 1035.3083562007 1038.95026481888 -3.57883132750787 -4.16346224206294 -15.5556689938631
475 1056.74774070031 1049.39941591707 1040.62068987047 -11.6356301124139 0.958680965360018 -21.0018463735876
480 1078.91963757801 1068.87945981705 1053.75755426498 -17.1247142376475 6.50891229610863 -25.2236614425369
485 1090.27091169203 1073.74730177745 1059.66829555047 -20.2100330551904 11.6913272474079 -28.2057100854838
490 1090.15496264677 1066.8454131597 1057.98371625555 -20.8971445086381 15.6923316828066 -30.4012095057008
495 1079.04562670067 1053.08630014402 1047.33018467053 -20.0949172813995 17.7337676741605 -32.0518404711824
500 1048.74015518685 1026.4274593122 1018.40481794974 -19.8230554620661 16.8521723361243 -32.0828279852483
505 1019.06052340668 1004.38371064582 991.822438332683 -20.8515376806207 12.5777382374389 -28.9442000552297
510 988.186500899961 981.087207768909 967.417898689805 -21.6232705375124 6.40874466550024 -23.2061633465045
515 972.22644809291 969.280220463066 962.186878603215 -19.2832301305744 -0.148027649493921 -15.6258144676396
520 954.055799599891 950.81489368045 957.2549443457 -12.6927419758321 -5.76511993348723 -6.95225177816771
525 955.89818932634 949.122491737354 970.550733127596 -3.14281578668177 -9.27569324808481 3.20448464217244
530 946.456385931077 936.506715318991 968.21795406984 6.92803972536608 -10.1742994345608 13.5061587988267
535 955.438833453294 944.193686450173 980.9094542797 16.6316999745769 -7.56941713460687 20.30256173221
540 944.192443886714 935.829663075398 971.450017335975 25.924597735669 -2.45162953911891 21.5309059403641
545 954.675786519393 954.212349252397 985.026649686586 34.5241544477378 4.45974877105074 16.1437153318638
550 947.792040918994 960.753396056409 980.843316193593 41.334647970771 11.5876470790745 8.59968610037174
555 955.679893093855 984.389116639654 991.91855831705 44.1478344756289 19.0070368230864 2.41597219811201
560 953.063164249628 995.980407828531 991.166916981558 41.4302607354366 26.7796434414881 0.428921723832361
565 961.204718298087 1013.07619405647 1003.29765121398 33.9198200411344 33.4960590989278 1.11441652766242
570 966.824463207356 1020.98596636444 1014.50878467988 24.8363525630288 38.167024892662 2.47715315321315
575 973.710357324964 1022.7517543985 1025.16504638163 18.7442492556731 39.7913380041537 3.28970803683068
580 988.135166163486 1024.95802301955 1038.1850850083 17.9034250368793 38.3030354574788 3.64614342742448
585 994.327886861545 1015.15322017929 1038.32463384936 21.3890529843077 35.2583154236966 4.07471035553699
590 1006.95844466732 1013.72843878245 1046.28111856699 27.2481142487065 32.6087851761912 3.99624432856336
595 999.479435873076 997.63102355341 1036.09906325543 32.6591198705739 29.7589888727804 3.92995738106725
600 1008.27077092075 1002.14582372377 1043.75155693331 35.8692206995674 25.6240609780561 2.28608831199118
605 998.201718377051 986.537970404622 1027.16707507546 35.532588617257 19.5829301933189 -0.174535943475461
610 1009.17428771573 988.685862589415 1027.13761824422 30.8452123089984 13.511059110765 -3.77384660775623
615 1020.1999738159 987.493198590276 1020.81727688131 24.1089313308834 7.47542385592496 -7.90187034540337
620 1046.96932234506 1002.15327992776 1027.00983977731 17.2009652626646 1.69959732325887 -12.8141764663395
625 1074.17057852682 1020.37794961956 1033.5585040836 10.1259551193956 -3.13810035247147 -17.8315005526557
630 1100.10890174798 1041.83516835817 1044.01987398072 2.73992539202237 -5.32096556159556 -20.6448546830861
635 1124.89278473623 1066.40175043064 1063.20408288391 -3.88940974893197 -3.69353602237784 -19.328699185066
640 1134.91562418261 1080.73910537092 1080.81778818333 -7.20582369057117 1.05898062304447 -14.3520935692398
645 1140.7700353641 1095.66981294335 1106.42355651466 -4.56512023273962 7.39233194406702 -7.36147507397942
650 1120.18084246087 1087.5465084875 1111.15228221254 3.75894657381294 14.2327340997588 0.356782667852845
655 1107.15420901816 1088.67481455323 1122.73911353052 16.3513030666444 20.8283981631289 7.00309726344746
660 1075.95811044658 1069.38471287768 1108.49929288437 27.5477764189973 25.5534197378157 11.231569872045
665 1057.23404620906 1059.01982131158 1099.47720354196 34.5056594197956 27.3158352908454 11.9509828961437
670 1030.97159019519 1037.39668060814 1076.55413384045 36.6621658974036 26.5060691928463 11.598680628595
675 1022.14107152009 1029.86976510381 1066.39321352512 35.6666891070694 25.6407584011882 12.2570553668936
680 995.814583126094 1001.44417433685 1034.46014855643 33.1131608152843 24.4832401685424 15.5267115417544
685 987.97449829379 989.410074389123 1019.5825960499 30.5741978058711 23.8168748311841 19.2282884790353
690 971.167108682219 968.16664164067 995.54793997134 28.158928765831 23.0024209680084 20.9657263084445
695 975.725637377928 970.372479261522 993.626328463295 25.2774450593561 23.6508197349072 19.1577546925632
700 965.175792320265 961.047639249327 979.149455656299 21.2775689256675 25.6557785041513 15.7462891054889
705 975.819016114483 976.041239609881 989.244135062332 16.2139029860024 30.1471334805319 12.6679008319576
710 977.683723725409 983.565098878676 992.938657732312 10.3000188835543 35.3621118513538 11.0550624233194
715 984.841054278201 994.945160757924 1002.1360548069 3.26444444785151 39.3352718940236 10.7955569809216
720 993.653125430333 1005.03658643279 1011.6457570735 -5.14673121146356 40.4342884314666 10.4385480771085
725 992.793475879856 1002.06260246479 1008.95679147001 -14.2885031549117 37.7777246245246 8.57759454746214
730 1003.99898550787 1008.5945351576 1016.45318302299 -23.9302672186982 31.4571070919753 5.77206968586619
735 998.614099181997 999.305469627792 1005.30920170259 -32.1438979200189 22.8919560160625 3.66690677000421
740 1008.73433571765 1010.17257736742 1012.39070764972 -39.0256430554182 14.2992107749088 3.25217728266306
745 996.449261112388 1005.26465663259 999.985150530502 -43.7131967288398 7.78578811223719 4.2325023759793
750 993.427177161926 1015.09972676391 1001.84575790656 -47.4006450033628 4.95375782015 5.82537960188384
755 979.151195210336 1015.84146295055 994.037255819918 -49.3388196855915 5.37783679735316 8.28094805175571
760 979.021279865088 1028.53738429113 1001.19222054672 -48.586801455067 7.70279059027783 11.7677344176842
765 968.319349120344 1024.4842382164 997.884384092084 -42.781429863418 10.101857003901 15.8047112522133
770 975.755183305446 1030.96123109731 1013.96018797471 -33.5190394567891 11.1754325866983 19.6268935957009
775 973.790428169474 1021.90735116095 1021.6490029892 -23.8575848591921 11.692317143017 22.9072310764497
780 975.180580853443 1014.00091030265 1032.7178933009 -18.0341778291394 13.0424542513115 24.0943441200634
785 979.822556965225 1010.3757609913 1045.84468331187 -17.2071023076706 15.4403612446226 22.3879859339995
790 973.32875572906 998.356509764763 1045.56358836837 -19.5790341947603 17.373893347639 18.5921029462514
795 979.177776352917 1003.55704873306 1055.83041013229 -22.3043993677895 17.3515468621884 12.0863307649117
800 966.028677866678 989.7799924084 1043.23521206718 -22.3260767723455 14.7672946993643 3.71167954150561
805 970.652551093773 992.690916679842 1046.66746251084 -19.4762295320403 10.0294472178331 -7.86638235053915
810 960.915767800733 976.124436331923 1032.07396356073 -14.9843730893421 4.36987506744457 -19.6994300890705
815 976.362053063639 982.044951081452 1042.8088352054 -10.7244136719355 0.00957212031787145 -29.6716760426907
820 984.270516459994 976.389678334263 1042.64746716894 -6.61431427220952 -2.25563745454979 -36.0664723703681
825 1008.32837194353 984.252376668974 1055.27863647963 -3.43966274930694 -3.30823960211351 -37.4423109647006
830 1021.58940563945 981.457948810567 1050.90068284389 -1.86819932170597 -6.02036889168065 -34.4944964538742
835 1047.22741216813 993.956433515802 1057.35917576722 -2.63514058623494 -11.521040952539 -28.3899989212732
840 1056.3683628479 995.150522379923 1049.9319663547 -4.20308619912284 -18.8970026257591 -22.1637752500959
845 1070.54177494388 1004.85379203647 1051.26770050124 -6.04805916203106 -24.1697048652356 -17.6858565604928
850 1073.82180693732 1006.2760124216 1043.51779133648 -7.45976855952093 -24.5067592206083 -15.7924301598167
855 1076.46430856005 1012.31526112657 1037.32261398814 -7.80011791915858 -19.7824919353463 -16.3189530567541
860 1073.75735131659 1022.62331821193 1031.29531533668 -6.97960098822734 -12.451345339424 -18.350584554457
865 1054.72036715591 1025.51679497887 1016.95660934268 -5.44007191588305 -5.17190296612534 -20.9964213947534
870 1043.94146118656 1040.44247973065 1017.30686546411 -2.7870322698183 1.15674802737431 -23.7097061256025
875 1018.08874016589 1038.92000545769 1007.58980645097 0.980322268217305 6.02525596595584 -24.9147168025939
880 1011.84934749816 1053.20955224969 1018.0382109604 5.2877493901164 8.74332876982023 -22.7802647710204
885 993.379244659083 1048.69794236921 1013.12458801239 8.42194218578584 8.69490540131192 -17.0713486143685
890 1000.36359283679 1061.98237430015 1027.49731472536 9.29707108009742 5.80632633358016 -10.4913820603758
895 997.328050316616 1056.94771744153 1023.10882596867 8.16650718946875 1.72247014702011 -5.06232997916363
900 1006.13795191134 1059.73742618386 1024.70109318952 6.57183248013444 -1.94746555506615 -2.43928924191855
905 1003.04652037267 1049.07057964659 1011.98440396308 7.58504130070366 -4.59406246675854 -1.29925499206277
910 1011.82546838575 1051.0536162876 1014.44285277013 13.3259199275879 -6.629350086083 0.0656178061646242
915 1007.90092279151 1039.68691358087 1005.77384255453 23.1900786764185 -8.82291422891585 3.95965099710374
920 1016.23001654802 1039.1210252416 1010.57795807218 34.2515287666975 -11.314435366486 9.26086586669122
925 1024.45150499019 1035.89222243175 1014.45419771899 44.097609415984 -13.6475520982876 13.4230795767218
930 1028.42874057431 1025.45484648548 1013.94478051749 49.8969738115784 -15.2204278396064 13.6651202496604
935 1043.23473016899 1022.80799802807 1026.91476052357 48.6382653515429 -17.1493094501324 9.41278129120448
940 1038.07285763473 1001.25061000524 1024.42584324649 39.9625248579167 -20.8863186013979 3.70616558194472
945 1049.86749470781 999.655044568453 1044.46196968364 25.8445962798697 -26.7966346656374 0.674279636957179
950 1038.18251381747 980.92159647816 1044.65214591826 10.693272600134 -33.1962338567702 3.19874563461208
955 1035.0461080254 977.339429721622 1054.40458822218 -1.35681109960284 -39.680817231347 9.27727329347961
960 1017.59428407518 964.141080551007 1047.21446046413 -8.26917138603073 -46.1653271238037 14.9378933248029
965 1011.00355700316 961.926503480277 1044.87644695393 -10.0836325862665 -50.4260333873011 18.1468172673011
970 1005.73114860733 957.490662334195 1034.97064559369 -9.15469054583545 -49.7573261289638 19.2875125339487
975 1006.03355278019 954.922480148673 1022.61654821707 -7.97762754316681 -42.4568172018667 17.6421714736823
980 1017.39191855603 961.82116680953 1017.02082359241 -7.47874941561401 -29.1329972781613 11.2943314275659
985 1025.36981144707 965.985479520508 1008.42854193421 -7.50458228742891 -13.9437879098111 0.20734202633109
990 1044.56073034186 984.493433997219 1015.94772034563 -7.98002794729395 -1.79659386246052 -13.6690365774741
995 1054.46441326583 995.532333130374 1018.89855414048 -8.86006782592382 3.65279559957675 -26.3365658739999
1000 1069.6519942262 1013.02384024675 1031.72380907752 -10.6751827265995 1.15391753089802 -35.1644547433101
1005 1066.59182561899 1012.13372055288 1029.57856126165 -13.1326585916673 -7.3774355577333 -39.5018098235468
1010 1076.24979517105 1026.05526050227 1043.75209318093 -15.4571857050035 -19.6726756198466 -39.5597188188921
1015 1061.08710065151 1018.1510177528 1036.43951696319 -16.4288226911155 -32.2186237096996 -37.3310397404683
1020 1063.39103443522 1030.38828498125 1046.77478623909 -15.2677676086195 -41.9924538906934 -33.8317330214008
1025 1044.90364052959 1022.40422335885 1033.85927356595 -12.1775539422853 -47.2290004710621 -30.2939498504072
1030 1043.51646104458 1029.41696772799 1032.7933848381 -8.02449799477478 -46.1769456313684 -27.263611305574
1035 1035.62884016534 1026.70616293281 1021.92011375959 -3.69609196002304 -40.6183548053715 -23.9627522850146
1040 1036.36518812644 1030.86213218751 1020.22671813425 -0.75879891590245 -32.2383655614683 -19.6538614009347
1045 1025.81397736069 1024.71604318823 1011.39907474131 0.0629381754104217 -22.6303591568136 -12.4020106205399
1050 1020.33028668413 1026.19510613238 1011.00134243599 -0.261492159239298 -13.1928167344001 -2.47821772317141
1055 1010.79091859665 1024.94155281718 1006.36076875557 0.00367495489669863 -5.06209478540787 8.95633445672267
1060 1005.1311676495 1025.83290428355 1001.90425799547 1.65346154120051 0.513879741337939 18.1935373725749
1065 1003.16749991825 1026.55909277568 996.429948852114 4.0648025764011 3.65266049396768 23.3379483452363
1070 993.306249545355 1015.09730486131 979.240848119 6.05561716284281 5.29193474207183 24.3037338786634
1075 1001.71093950351 1019.05818736941 978.433481143419 7.9270755338875 6.21936057791385 19.939985493684
1080 993.602316821587 1004.66809356904 961.793311381686 10.3274038119069 6.32918744109353 10.5006020759081
1085 1007.69825750188 1014.2218849923 971.933087357665 13.0434000583392 4.34110812314674 -3.69779215947012
1090 1006.41717532501 1010.08853276832 971.679945826069 14.2635139895848 -0.0107991624370367 -20.853330984386
1095 1025.69455563371 1028.63120129264 996.853645418419 11.9763183996436 -5.86486472382107 -37.0324497824892
1100 1030.09170238005 1030.8742736936 1009.54525645719 6.66714934036722 -11.3927077943593 -50.404477110353
1105 1041.93490034258 1038.42387159113 1031.24147772252 0.25807192526132 -15.4449456212505 -58.0840046804722
1110 1037.48273626747 1028.41266878516 1038.35875784534 -4.716403166024 -17.4311607660811 -60.4569194060821
1115 1025.37386197469 1014.51537955909 1039.30729063022 -6.40429603697601 -17.4424210832845 -57.0008252651587
1120 1012.42074308663 1007.93456127244 1040.33316240935 -4.71789971888633 -16.5101120370057 -48.915125860072
1125 985.847005296686 995.564292413663 1026.29250603709 -1.24821173698445 -15.9625754467206 -39.2684604964952
1130 979.435640833126 1007.87676251799 1028.48310465341 1.13885669569179 -17.7772313528261 -29.9504881794454
1135 961.777126281505 1008.37522598468 1013.94592843748 0.371543335760341 -20.7976628410944 -21.6721034085198
1140 969.135984558816 1029.13747632909 1018.77553905473 -4.09531320005687 -24.5347638311447 -14.4040765613037
1145 970.231974980597 1037.28143957426 1012.16063984963 -10.8309883298523 -26.5447551017967 -7.51918098761727
1150 988.539323637384 1057.71730356354 1019.76340225191 -16.8902350204454 -25.6651024441557 -1.85923706847127
1155 990.637525987834 1058.80781264933 1011.04054689976 -20.2528343316262 -22.1186194375822 1.58640914133502
1160 1001.00559971796 1068.05911530157 1014.43042887636 -20.0571948371834 -17.5008838183289 1.30579777151267
1165 997.096817322641 1063.07848846673 1009.81234470379 -18.4756993476654 -12.4367271288321 -2.62153080783033
1170 992.692184360397 1057.90483512858 1011.69527218425 -17.1746055888225 -6.10517992101 -8.39761604802038
1175 981.914930676908 1045.57618462034 1011.9821322878 -16.0630053540083 2.34845908620532 -13.3576943181727
1180 967.911864601706 1028.56796970843 1008.30804983126 -12.8834830297085 11.8197186765025 -15.0073704173577
1185 959.572358897301 1014.76327398078 1004.24524351195 -5.71588429292553 20.5167816057145 -13.0494586429985
1190 950.554722676782 996.924427553116 990.571421941751 4.89363768425739 26.6160463180441 -9.35675920173982
1195 959.188806086224 995.691771310104 987.64436391247 17.8411951383998 29.2845470088002 -5.85429708911835
1200 959.048528333908 986.341178755296 974.34899450835 30.0848647056258 29.4364644150292 -4.1676100197455
1205 977.907043074491 999.259315184251 984.349330958306 39.5117344138436 26.4734738973696 -5.03276342677374
1210 984.052570133464 999.191980562957 985.619087157273 44.4553287315484 20.4335331382602 -9.23821412097728
1215 1008.87418163586 1016.50273781929 1008.05081969654 44.4645020699689 10.6273788631672 -15.7114387085267
1220 1020.43918754023 1017.53514448889 1018.16129174737 40.1116331593595 -1.53502499903183 -20.8869517951452
1225 1042.6827771789 1027.53776634819 1040.22076183186 32.0996493506511 -13.5174044010815 -20.6563123781155
1230 1056.19267823388 1027.62827180163 1054.08133390742 22.4578560965457 -24.0409498850419 -14.0685035693738
1235 1074.92473964582 1033.88315986512 1072.15976734469 13.7474638546406 -31.1923299953846 -2.86279874195969
1240 1086.47818992828 1036.90952645797 1082.33901067306 7.57449660839389 -34.5969139002868 9.55434542082067
1245 1093.05410683369 1041.41801282663 1088.96782771227 5.17271660846967 -33.3036534587522 19.1667526821533
1250 1096.97536346373 1049.20556027045 1096.49521043051 6.68712323438409 -26.6114468866346 24.1624806387579
1255 1087.63187909388 1046.75966016429 1094.57649680122 11.1565131438148 -16.0831568674138 24.6107241074743
1260 1082.84020417768 1049.61267482316 1099.93470161471 17.7113343418865 -4.30600758407263 21.1091977360235
1265 1063.89292949612 1037.83602572448 1091.28483011761 25.2300162397408 4.60859109845411 14.21690656175
1270 1055.67392859729 1036.12955753702 1092.08789943121 32.7123483985144 8.23403132982066 3.19115301876921
1275 1037.79320024467 1022.89501245623 1078.88589157836 38.5192929441948 6.38040009510584 -10.1375011378417
1280 1038.9266389357 1027.24374183647 1079.81076505941 41.0617655991127 -0.51150247350299 -22.5489290504576
1285 1020.58258387653 1013.80047467596 1059.73790632969 39.2009708065224 -9.60709880677522 -31.3056670227127
1290 1022.83978451838 1024.70080186076 1063.57098244561 32.2771501638299 -20.0871947515318 -36.1376655988265
1295 1003.00912568781 1014.78967795922 1048.97944856144 21.3805176683532 -28.9369454234617 -37.2649902482748
1300 1002.24935438889 1019.26865796552 1054.46411696698 9.98561658557844 -34.6763080506517 -35.3061978910953
1305 992.802412674936 1007.36874494098 1048.87716482235 0.642908160986128 -36.2023760302547 -32.056969693915
1310 994.75394298984 1000.34572769899 1050.41160434141 -4.82652459798451 -34.5706015226503 -29.7669352386555
1315 989.358492604791 983.251961639836 1040.31552654559 -8.17307660564915 -31.1134605217653 -28.0379115068463
1320 994.703276831882 976.100672724034 1037.00418101974 -9.87592406955426 -25.853412670823 -25.4459586250557
1325 998.275146146401 966.481366243273 1027.66134049646 -9.41182745193827 -19.0397379871154 -22.1818307651473
1330 1004.7471886819 960.08850028501 1019.04933718023 -5.27302929671679 -12.9558306924635 -20.4603041253083
1335 1011.18456601981 956.506390704676 1011.17532698957 2.03173238376116 -9.39204309983243 -21.7307506597096
1340 1003.85720233393 946.09573421142 992.909505728055 9.17020391310437 -8.67293577509124 -25.4418137915046
1345 1005.39408254203 953.091026448269 988.657170503184 13.3044284522003 -9.8596263640989 -29.1688141960634
1350 987.612991398279 947.837968606643 969.961997606032 13.5609246120409 -11.7014030077935 -30.010895590426
1355 986.829169418344 963.46168216008 974.177435073332 11.7297746587718 -11.8505441059885 -27.249914973072
1360 967.892533311886 961.043310397496 964.281283093768 9.32084545347561 -10.0598795060707 -22.140484438824
1365 965.664797373524 972.445252647527 974.744941197295 5.82894203877886 -7.26887045218999 -17.0321930605608
1370 952.383785133103 966.98040536546 973.763246356491 1.13432899550338 -5.32276181750571 -13.8157855184595
1375 957.102931881622 970.757882837627 987.501191967456 -3.58088958068237 -4.61944023805353 -14.8961719143077
1380 957.9307461071 962.36364143262 992.092953780269 -6.68428794794243 -5.2853980983546 -20.6571726900832
1385 978.941290905282 970.682350427991 1013.70005862201 -7.93979229739072 -7.6605404555096 -30.1346053255874
1390 996.056470651212 978.894516938751 1029.82199222926 -7.55503414019234 -12.391020326905 -40.4768538739379
1395 1018.16451033427 998.649819811304 1049.75441216867 -6.49941421201172 -18.0978849910302 -48.7061481700508
1400 1032.33945756183 1015.04378942677 1058.93621323467 -5.8916245864582 -22.4308695001218 -52.7676984304914
1405 1047.18072497128 1031.06061295614 1065.09989862484 -6.42845397409751 -24.0814679436682 -51.5823954836945
1410 1060.71011681068 1042.26405115526 1067.58788411115 -8.64632599089964 -22.7688498152117 -46.2746384436613
1415 1072.60777672199 1049.00208663323 1068.22918098191 -12.2103206688277 -18.195099402145 -40.184887904311
1420 1095.19595104052 1065.80219852303 1079.58672816303 -15.5354593445167 -10.9507205103126 -36.7146709095759
1425 1101.88021754134 1068.41158470533 1075.77257016754 -17.2796497243538 -3.30434045857606 -37.5426715570299
1430 1119.46579079677 1084.33503235502 1085.94995879113 -17.0266729305068 1.09478256313067 -42.2872416974395
1435 1115.11038000835 1077.90246114799 1077.12069828535 -15.779696857747 1.65534419374827 -48.830355039795
1440 1124.8567704635 1087.06808640343 1087.97439697983 -13.5238826307803 -3.81283507700092 -55.0522466391421
1445 1112.5817351712 1075.50866327409 1082.30793716393 -10.795927140772 -11.8480779589766 -59.4310481273669
1450 1104.71852296747 1070.68626234038 1086.78919570866 -7.40381168990341 -19.3961663318714 -61.2349070137357
1455 1087.45594076183 1055.76689767167 1083.84127919626 -3.40429438454537 -23.3948854377213 -59.8354747837856
1460 1079.14732300477 1047.98851950047 1087.78225595172 1.57285337966626 -25.1556269160852 -55.1469144539485
1465 1068.93934055658 1036.54213413369 1085.42383026738 8.28556448691609 -27.0107884856262 -47.8867395276686
1470 1064.12935330596 1028.9388728528 1084.8405444896 16.2908063152361 -28.9347323654142 -40.301781745049
1475 1064.17801994611 1024.39156825195 1087.64718832426 24.2952755875242 -29.316439085363 -33.2055940029157
1480 1059.8477760621 1014.08395925154 1085.37230620126 30.3277057790291 -27.3109618195467 -26.0216954737955
1485 1066.68801893964 1013.46275538111 1093.15115698593 32.7878293504355 -24.0975486956111 -19.3290584849615
1490 1058.89385053053 997.010789592516 1082.42362162786 31.3471495768998 -21.7301562429603 -14.0775538783769
1495 1068.24862951062 997.710003129574 1085.00861256198 26.609021348997 -23.0027690508128 -12.6038063856284
1500 1058.48188994992 984.866288669494 1065.99176413271 20.7932151207737 -28.1275572835887 -13.562940133154
1505 1059.95207645911 991.287421284759 1057.82212489221 16.4444324315669 -36.9472841881435 -16.7518628459718
1510 1048.78515137355 993.570459086129 1038.66502566498 14.9681714532264 -46.9030136521833 -20.4625637262068
1515 1049.2172592059 1011.91108369918 1034.60159483437 17.3342083562941 -55.9032484356787 -23.2324092622492
1520 1038.12984084765 1019.4734740673 1023.27461114717 22.0889300647924 -62.1239709727663 -23.6783988216259
1525 1038.62466952301 1035.24416494853 1027.72774565246 27.9176207244283 -64.5959801156067 -22.0873713877032
1530 1031.5423164606 1039.74892898953 1027.07908778618 31.6510292801226 -63.1287416249178 -19.3839527530724
1535 1020.82181538971 1036.4336572295 1022.5234649498 31.7323370973766 -58.6018097407895 -16.5739814183462
1540 1019.16324579096 1038.51129041773 1024.75605052554 28.5530092171205 -52.7678434034614 -14.258823090476
1545 1007.45150465817 1028.07561423635 1013.12642030642 22.602571793817 -47.3575762851016 -12.435205219107
1550 1013.35726765386 1034.57944173046 1015.97611088299 16.1862056430745 -43.0534088396207 -11.0001200586141
1555 1005.82396533586 1027.5523787386 1003.47661992866 9.78963840784589 -38.9050761359513 -9.42468948623782
1560 1016.78899598061 1041.2532925195 1011.83125501212 4.17647233460213 -34.7737290684787 -8.10023650339946
1565 1011.80548705479 1040.35399209765 1008.16139751421 -1.86648578016951 -29.0286148348441 -6.2155605231067
1570 1022.40907166874 1055.13029380123 1024.14367367496 -6.62299194812384 -22.8623501128169 -3.61129538193781
1575 1016.25005572315 1049.78779583001 1024.87673402413 -9.09252448260315 -14.9541774907832 -0.335275256616421
1580 1025.8773612712 1054.27558927056 1039.92044998216 -6.89035493843305 -7.17587820504476 1.14196853588276
1585 1025.70764449195 1044.54333487273 1041.45369827451 -0.672371760745265 0.765027153895279 -0.111046770390017
1590 1031.63579807015 1040.56191744652 1045.04989418773 8.33206736546567 7.29253370498393 -3.96503979193556
1595 1032.30055476385 1034.32526045528 1040.83493240497 17.6226356683338 12.2992944488605 -9.24747066512351
1600 1029.6104343374 1028.57266080974 1034.81945567348 24.6070315697264 15.6216704035986 -14.1932043507783
1605 1026.97300552083 1025.9409145096 1034.58049734269 28.3115338338408 17.2106098780609 -17.0834442662075
1610 1010.90177323482 1013.19759794681 1027.8478684266 28.2610304364775 17.1284702699173 -17.1161891398597
1615 1002.82196881602 1012.85130892421 1035.44239277838 24.5878809895494 16.114100829997 -15.2460661979715
1620 976.492180905129 998.670360550344 1025.52623846909 18.3864370139502 15.5082266922564 -13.0329390172506
1625 965.694209819236 1003.50752056005 1029.20558358807 11.9184871803677 16.9615317669341 -11.6674769241794
1630 942.658829092978 996.374268710972 1015.9308166506 6.4723294177377 19.2949846685348 -11.5030846858209
1635 945.700899206254 1011.20754122099 1022.42219933903 2.64278084618467 20.1939020001682 -11.5752982558381
1640 941.664117686482 1010.78828371865 1014.28974857765 -0.720958736810844 17.3024457536179 -11.0275930716093
1645 959.668496254147 1022.18120297085 1020.23479728718 -3.00589250485122 10.9045258427476 -10.4149034522913
1650 967.268369049604 1014.34256787147 1011.27365839234 -3.95744623184012 2.97102177875044 -10.6183502019939
1655 995.632789238494 1022.55519205486 1022.26047623247 -0.605616369913345 -4.73584282552762 -11.5420756334188
1660 1007.20194264425 1013.01982877945 1018.16836631632 7.06985582382112 -11.4356324618196 -12.2457432678343
1665 1029.12559095463 1019.05742331299 1028.6714444065 18.0888671928785 -16.5018284758074 -11.7393556425444
1670 1031.1557530065 1011.88135949545 1023.04124779172 29.1683099031215 -18.6389921698938 -9.07314289648567
1675 1035.26971121823 1014.66717724373 1024.03178167443 38.6430153690685 -17.3789792500031 -3.56458742051584
1680 1034.94121641624 1018.74540742097 1023.86226836429 46.3743159384112 -14.379656428383 4.37065555851349
1685 1025.08369909087 1016.55495839128 1016.41117466736 51.6939583717868 -11.3243423037078 12.6673371878007
1690 1023.15255462882 1023.97643395275 1019.42939743395 53.7103993677101 -7.26115661433397 19.7296768609766
1695 1008.35854660208 1016.57519926859 1010.12676619457 51.8356142962868 -0.38105422275511 24.2264365897485
1700 1011.96158605098 1021.04998285094 1019.94237159167 45.2977415753023 11.1507562060817 26.7762891022677
1705 998.577147816984 1002.96126334806 1012.05221744804 34.9300357603954 24.8518653005126 26.9561236968376
1710 1006.88686738205 1002.92800363893 1026.23034196486 20.2160722675964 37.4942063417117 25.4360703771648
1715 996.231557751426 984.833431160249 1019.99261252163 4.04040329900273 45.5561880537832 21.096915951807
1720 1004.15198292654 987.927074429364 1031.31023379544 -10.505706596045 47.0671641588924 15.4761819432768
1725 996.332625803089 979.866090945195 1026.50964166306 -20.7493635500567 42.5156903296326 10.0118371528603
1730 1006.06071145373 992.542975896718 1037.26370457394 -25.5105870601456 32.7652363880662 8.36147675935053
1735 1004.32964150404 993.348968044627 1033.08647125354 -26.0447052126631 21.6240826901435 9.79064872286341
1740 1012.30466522233 999.662224013672 1035.20034934921 -22.3625817124674 11.5777451451481 12.9465902049875
1745 1012.97001314658 994.392990382599 1029.92103376552 -15.4402774983874 3.35992451348697 14.6487621061225
1750 1012.83939223396 986.672205866029 1026.64126336858 -7.92435753557968 -2.86950496876693 13.689748991875
1755 1015.24886364338 983.021616550063 1029.04012819339 -2.93118835157017 -6.68280739578956 10.5256419198166
1760 1012.90287399522 979.372948114994 1029.33450003265 -2.46234147945445 -7.89184368477343 5.85581742856684
1765 1017.45135453357 989.313253183236 1039.94407436966 -5.88344246477963 -8.30241956682567 0.5337757163902
1770 1010.59893075889 993.011672868006 1041.42372582344 -10.706936004426 -9.47196167872776 -4.31989689799363
1775 1014.5639283551 1009.2901547459 1054.5359829678 -16.113100285714 -11.1454991312782 -6.65629709270937
1780 1004.59847811693 1009.07311198322 1050.68350319027 -21.1327995354153 -11.3482243151383 -6.55359969330934
1785 1016.35707452119 1027.15694581961 1066.67311763823 -27.1816095222247 -10.5622881311204 -4.31585989172142
1790 1012.22181190029 1026.59552292672 1064.81143167085 -33.8678550105057 -9.35131272087411 -2.68119170818034
1795 1027.5412415457 1043.27436828347 1081.40140621693 -41.1400888928718 -10.4159635559162 -2.06175742064176
1800 1027.50979031135 1044.31145023103 1081.1258533485 -46.7284475037201 -13.4852554049113 -2.45201445438532
1805 1037.02299254745 1054.63726820655 1089.44657307225 -48.8288956936625 -18.1110372671726 -2.19060083124533
1810 1038.80308620749 1056.12534075125 1087.66222838545 -47.3024152761351 -23.1076042627554 -1.00696119057137
1815 1050.18792001379 1064.76256528195 1092.82117360952 -43.8804019155974 -28.1908218014722 1.77911255483876
1820 1053.83758771675 1063.42215851636 1089.17244077667 -40.1627820499134 -33.1371654903708 6.60088681972912
1825 1056.6317491077 1061.92257823457 1087.26870425743 -35.8924131500192 -38.0982757162411 14.5234164415909
1830 1052.51366943541 1056.82433366543 1080.36855757069 -30.4780559392695 -43.1678628560308 24.8136487239065
1835 1042.67182692193 1047.72528477655 1066.27056188927 -25.5662991511654 -46.1777340950313 33.0876052180257
1840 1036.19018605493 1040.4619680373 1052.63353869915 -22.2251619370659 -46.2121334527869 35.7930834905512
1845 1025.95294188443 1028.1455631583 1034.70232150967 -19.6665469304589 -44.9966432602525 32.4271587588951
1850 1026.37151925391 1029.17768373562 1031.39575602565 -16.3302623089781 -43.9586757150605 24.5417541145672
1855 1013.20261053401 1020.95221436679 1018.76465637508 -12.2752714205718 -43.6772616546929 15.4439792838656
1860 1016.05646347515 1034.20542339555 1026.20096712036 -8.45688656451637 -43.6024686178805 7.17430418649676
1865 1004.11216673875 1034.29190841377 1019.2021603037 -5.57387343042949 -42.5029623638104 2.32498655789263
1870 1010.82108583891 1054.2443174083 1032.40232352372 -2.31022072811406 -39.2465233894671 -0.0125402059329243
1875 1002.85948025461 1055.53958530406 1029.43497064401 1.68707691108527 -33.550416764828 -1.48544840297668
1880 1003.68145633932 1058.89366054558 1033.68767405193 6.13053212138119 -27.1686109463987 -4.42896591149122
1885 992.306330403461 1041.94707629225 1023.0091513536 10.2147105640864 -21.0800819854781 -8.78453205101512
1890 994.273474012964 1037.03364281685 1026.13731634207 13.2698930053491 -15.6345654386695 -12.3566092766777
1895 984.509962393833 1023.03261736775 1017.72349127801 15.2624906948138 -9.91269003557688 -14.9302443946336
1900 986.288743224728 1024.71227724162 1021.04585728793 16.3329161611652 -5.01547364675612 -16.5872498896046
1905 987.915014327896 1028.17790899839 1022.56985500914 18.2043414775822 -3.10424289188126 -17.2750318436414
1910 985.130554523183 1027.68846922362 1018.69474508665 22.2481240492276 -6.03423133695844 -16.3398662994303
1915 988.962255411557 1032.91969125821 1023.0749780138 27.3109145240627 -12.899166653784 -13.5058410968493
1920 975.486058581664 1018.99250270178 1012.29742706005 30.7058851137 -20.376822668377 -10.1279779328462
1925 980.367730449214 1020.80485953799 1020.26316919169 28.8338103105901 -25.3426072315687 -8.95591461390649
1930 971.392021091544 1007.58637072683 1012.75824657361 22.7295482365042 -26.3813880019206 -10.5439420775041
1935 982.779974396479 1010.80312037925 1022.01834923721 14.6284847047048 -21.8768980390589 -14.6187613136867
1940 994.733635206592 1011.63455476435 1028.73864378375 7.82028618118529 -13.8093771236682 -19.0688413219437
1945 1014.32829829797 1019.54805053394 1040.35288459236 3.68703887639158 -3.9149704751186 -23.1492934813794
1950 1032.55456149273 1028.12371188999 1047.99211004252 1.81559097137414 6.27997558400757 -25.8128719403132
1955 1040.95930788965 1029.62126512643 1044.70392028743 1.78957572331054 14.5538600835921 -25.6254938098805
1960 1047.13585720649 1030.5564197969 1040.40804882159 3.66303202798789 19.4199525826332 -21.997172896765
1965 1036.20185331407 1015.9707526759 1023.43812360522 6.95532619149119 20.1284863870413 -15.7991748197821
1970 1027.1474590196 1007.63493858185 1015.21499442328 10.4871339725015 16.9936049178155 -9.69900675013857
1975 1002.00267155707 988.483995563888 998.649779647543 12.8190976543409 10.8324495319703 -5.87134300907073
1980 992.968176325419 990.661310791228 1005.15563068731 13.6586058816142 3.36032278074766 -5.53072909387577
1985 970.296267868163 980.042452631911 999.087867673981 11.9199278330684 -3.48318222348983 -7.59380273008401
1990 971.310130758213 990.841981855061 1016.02979366136 7.89484867751684 -7.71508382448844 -9.47054315068832
1995 965.711931726269 991.164441878598 1024.44322423973 2.16717360339681 -8.40078903352874 -8.80848963225586
2000 973.093607479062 1000.21589190292 1042.80351904824 -4.73372739866164 -5.2171975551154 -5.02469519956054
2005 973.177494815144 998.343385442107 1048.75645258314 -12.8707732554683 0.0849301611951489 0.349628769984579
2010 974.905470868962 994.680113202033 1049.88489989191 -21.4518614956791 5.88696245093412 4.8349690097203
2015 981.847864587808 993.923670221608 1051.57738019751 -28.122952815763 12.434471459839 7.15436350185517
2020 981.891169123033 986.432246738364 1045.44075125782 -29.4656107486159 20.4221456944429 7.55170072761754
2025 996.476177863171 994.863387058461 1054.95525608321 -24.9634382093269 30.5212986921694 7.53717237277317
2030 1000.27817600656 994.526737347934 1055.06211781271 -16.9514660123479 40.7076314520936 8.96131652172033
2035 1022.89222185503 1013.50753640804 1072.42348394194 -9.28198275558616 49.8231576428314 12.1211409588664
2040 1027.32369761096 1015.02310503344 1069.14657402002 -4.55365050242746 54.6296535538436 15.4503042508863
2045 1048.76029997915 1035.90988732358 1078.95222584406 -3.93018137532795 53.7369977042815 16.4058009384067
2050 1048.37077272695 1038.70485359177 1064.27894479917 -6.83821127576508 44.914655706346 14.9859765640201
2055 1057.70287688738 1052.92345464922 1056.047415916 -11.2943703868658 30.7048523215736 10.5469995563329
2060 1055.98933154042 1052.93270823406 1034.48677748588 -15.1321476527408 15.1634430560705 4.42286348352412
2065 1059.11782476633 1051.09631350291 1017.68738723393 -16.1158820064726 3.51919017693538 -2.46760504371479
2070 1062.36637386619 1043.07656822195 1004.12543418212 -14.7309225947787 -2.77496633380607 -9.74776852783134
2075 1059.09934259643 1025.82100865393 989.980236408509 -12.6578291931898 -4.12132158664003 -16.6371953134945
2080 1057.99610714771 1011.73790311255 983.639210635238 -9.98998170610261 -1.89291381074119 -21.5861812582177
2085 1039.79011201195 985.104744514188 965.433507354763 -6.12332601546663 0.970974449217994 -22.2955690173097
2090 1034.0163785067 976.384471310922 963.864169016292 -0.593926898720551 2.04978949032059 -18.8525024238164
2095 1011.86248031589 957.884838721784 949.44141955176 5.00531884222894 -0.383634845726201 -14.1981557495464
2100 1010.45934906592 966.436643273997 957.765441569858 9.19508395464541 -5.12792008536045 -10.4822790034756
2105 995.090592522438 965.567021779448 954.389435018593 12.5544025122847 -10.3100974296382 -7.46897503338455
2110 1002.60899623415 988.370176007489 972.730130300638 17.2780319407428 -13.6080546774254 -3.85885152436185
2115 998.470041719783 996.094705868062 977.382254243614 24.7300383540686 -14.7463780271309 0.27275458760661
2120 1013.48840760285 1017.80122318344 997.837907567192 34.4122810120763 -13.3368524180995 2.74683759499114
2125 1022.78632614682 1029.33952380967 1010.7744763173 44.1068496222019 -10.0724191953862 1.70594114652813
2130 1036.6830781361 1042.45022739003 1026.91603868969 50.6491263959767 -6.17051297252758 -2.81983458677434
2135 1043.00479738183 1045.39155943539 1034.88283994646 52.2466251457732 -2.72908229507164 -8.81335405443506
2140 1042.06611514329 1039.40715195804 1036.06085625009 48.5680286403478 0.00495237157159224 -14.0093402301685
2145 1043.15052708229 1035.31653657705 1041.25794361847 40.8082802302041 2.65228586825527 -17.2657399045636
2150 1037.34751239964 1024.75759836713 1041.82923777048 31.701849840375 5.13057784065072 -17.6183816967868
2155 1046.52591089591 1029.02368870113 1059.29295142291 23.597253735544 6.07594127235306 -15.5002358307854
2160 1039.46053709286 1018.07996181333 1059.74145983884 17.6436651458881 4.03115489022772 -12.0074499644772
2165 1051.58192752943 1030.3902645228 1080.8736196933 13.5600163750843 0.203694164079518 -10.0009185832684
2170 1046.06171162961 1030.04617996829 1084.20635124222 9.94607888533166 -2.90452699631208 -8.68903315360006
2175 1057.59068204632 1051.34528680423 1105.67058644322 6.15739903060853 -2.2852117797214 -8.28239080485257
2180 1055.20306018493 1059.97753271689 1108.92233739386 0.899571246183603 1.4846826842362 -8.45038103448353
2185 1057.75565069353 1072.34799612808 1112.84680330096 -5.98217026687346 7.03940713598272 -10.9021246137012
2190 1050.64699896683 1072.51521042195 1103.21692498353 -13.5003195544726 13.0472881902985 -16.1797608912878
2195 1045.06491619275 1070.29606883636 1092.55304208954 -19.1475831591841 17.8584713093677 -22.8167873716988
2200 1033.32989805723 1058.03843662276 1071.49742401844 -21.324560194543 20.3105204064906 -27.922284267342
2205 1021.99849875415 1040.83274741395 1044.4640610994 -19.2444204871066 21.1367879989335 -28.8009940703602
2210 1013.95534772996 1021.34455951339 1014.55072738236 -13.2843965987766 22.5034779763071 -25.6401130430253
2215 1010.19582020331 1003.32006169285 987.205899006955 -5.75886316178936 24.7351802469283 -20.7843957189179
2220 1017.13887628292 995.654885477723 973.981386428753 0.498264295415573 25.6373072313732 -16.5848845314444
2225 1020.41698891372 987.191839766922 965.508455365656 4.19987395128664 23.1733079613681 -14.019591388143
2230 1034.04383073472 991.716447260144 976.949376639968 6.2944235343489 18.0456065023322 -12.7375638012301
2235 1032.62042966354 986.057457693134 982.586800404367 8.34034217555044 13.4220966442428 -10.8081651382562
2240 1041.4289858654 994.984417014426 1002.30241468972 10.0637597877418 10.9356677413839 -9.29962614297446
2245 1026.65014631323 985.401435793681 998.748377510371 11.4071937916133 10.1794531197422 -8.88235630362236
2250 1027.69717966357 994.843545503129 1006.03208308141 12.0719911922149 9.49876009648893 -12.3994526343587
2255 1015.9139448882 994.546712601827 995.992161069981 13.1213321306158 9.30617932211924 -19.5296823121824
2260 1021.44280650538 1012.87041170642 998.80557679325 12.6247783589766 9.59420794040967 -29.6360037712833
2265 1019.82769219584 1024.63416464107 991.740886126945 8.73957927437236 9.76040473068233 -41.254802675197
2270 1023.23442989318 1039.45594785867 988.233351065315 0.000422580653307691 8.1853121375933 -51.3699303031691
2275 1022.07209088129 1046.83728053344 980.391049155088 -12.047097601051 3.34764123242291 -57.4355401405316
2280 1008.51566326844 1038.36579408585 961.272177700299 -23.2979557142475 -3.92593603806843 -57.4292569814013
2285 1008.58712712495 1039.73925671326 956.411491084231 -30.5355218711443 -10.7128582876955 -50.0713659832045
2290 993.778567760946 1024.03135236485 937.391422633436 -32.9742133400447 -14.8857044085638 -37.8560087427309
2295 1003.65048310186 1032.22035233744 944.107880003705 -30.4537796648135 -15.6261821322539 -23.0657255206549
2300 997.465209867136 1025.78593981303 935.968417939216 -23.3602039765895 -15.2350836866611 -8.88917141541773
2305 1012.83005185343 1042.99257616203 949.641561149846 -11.5063865984805 -15.2138016104081 2.33928514269066
2310 1026.55530663383 1060.03381511055 962.365391246043 2.53800567716479 -16.0991872951778 10.5418918389403
2315 1046.06955959255 1080.89024564111 982.733211177649 13.4395107222649 -16.4915991617979 14.9812126024215
2320 1061.31223685139 1092.36785095733 1003.43309616774 16.7001037716429 -15.4074498614605 15.235798492072
2325 1066.10944801427 1089.24378080241 1019.2887433351 13.5205730138135 -13.3084106372183 11.2691097520388
2330 1070.32209847563 1083.91451058241 1037.45042870292 9.52061132188784 -10.8381154551656 4.33323845812561
2335 1058.02219473735 1063.08273425094 1038.44013974737 7.91997600463785 -8.06945322642476 -2.6747175426379
2340 1058.21799400029 1057.00622554294 1050.10758154956 9.57722704497303 -5.29087488253363 -8.67068838985875
2345 1043.71665313179 1037.54046265364 1044.13713053479 13.6345250301148 -2.51251219918998 -12.3412049906562
2350 1042.69565115976 1033.60883289202 1050.83283507268 19.9428218864329 0.673246042021168 -13.7862664431928
2355 1035.3021038249 1023.96554763421 1050.84988438804 25.5008804292685 4.90394755782245 -13.4097252578202
2360 1043.99370847355 1031.23604276354 1068.33642255831 28.934169982583 10.9333448991934 -11.9736539959106
2365 1037.99768858207 1023.74628067164 1070.07351678652 30.4526644958676 18.5405727319055 -10.2885839656212
2370 1046.8239909593 1031.48662646292 1083.85875754873 32.4115188292858 27.186759276165 -8.86459260365218
2375 1041.4936757471 1026.53077839995 1078.27508568358 35.469984502872 34.6581042019612 -7.37101721491562
2380 1039.49373696199 1028.40734920293 1073.30281906145 38.1550459176477 38.879180068148 -6.17111863252082
2385 1034.28454842285 1031.62535319902 1066.27334062166 38.4677498276216 38.96982980824 -5.3470429349214
2390 1017.53996875119 1026.34760293104 1051.56588205273 35.433353564359 35.2220082391997 -4.50800475633
2395 1007.86999980831 1028.19184177544 1047.08029665732 29.7828872670163 28.951892926499 -3.51438019099445
2400 985.045310703455 1013.77782846406 1027.82594146282 23.9250089226771 22.0492785883364 -1.93359183980162
2405 981.155940823732 1015.13860198952 1024.53271380137 20.253010665637 15.0456984375118 0.37497317666064
2410 961.375855081333 997.307990600169 1002.07562150732 19.7752040806396 7.68080913169675 3.51295416644521
2415 961.413830017999 999.35449182974 999.454213329867 23.3289569012254 -1.66703708926421 5.94840312660231
2420 946.940854743606 986.341295114545 982.671396370369 28.676498202243 -12.3108874160184 6.37329325486919
2425 952.873691760374 995.76026279686 988.249112343376 34.2464948690878 -22.8402463844213 3.5092345763347
2430 941.893488843087 986.312300715236 975.982206528672 38.4831976552675 -30.0324987007394 0.58972338843817
2435 951.794329771872 996.211943117834 985.319553210203 41.7142018248935 -32.6354675142239 0.291153994454099
2440 950.491395682767 990.542366412443 982.829392894094 43.9209692947429 -30.8613944348508 3.52029436642338
2445 956.784331269195 991.266854059253 988.941813028527 43.9186890413222 -25.3989341268968 6.66686967528182
2450 962.849393505502 992.645661366379 994.475519562793 40.490188895971 -18.3228446845781 7.1206430827445
2455 968.123728019938 995.700751962583 998.655796798675 34.4231323055546 -11.8693035517317 3.77535914395313
2460 980.721090439118 1009.18959165384 1011.53286320548 27.0846912511509 -7.10784331045912 -3.74488772537143
2465 983.475465834258 1014.70135784005 1016.21121835157 19.0291982688549 -5.10594331443542 -13.7761329715548
2470 998.36194891461 1031.84627693081 1034.60707557094 10.7327878785196 -6.40300903338015 -24.795524221069
2475 1005.343780471 1038.82977475318 1043.57807531043 3.55447463081236 -10.8978360980985 -33.3646717245825
2480 1018.53982327843 1047.49396209641 1054.51483264618 -0.648745170198035 -18.0716768604307 -38.4749468473443
2485 1015.35401542269 1036.71789241657 1044.18932560088 -2.43718803482704 -25.4811052894448 -40.1900229487928
2490 1029.2528796665 1039.89899898762 1048.31833414049 -2.7831569926781 -31.5387647252022 -40.191072736777
2495 1021.15463931486 1022.43398549147 1031.21832351566 -4.43155531322792 -34.132002223079 -39.8895431255149
2500 1030.83352139931 1023.22295653539 1035.13657770204 -7.68501790730227 -33.9838075119321 -39.9411118354813
2505 1028.81214938979 1012.69720574062 1030.78368825792 -11.7048554721062 -31.8794060381864 -38.782419792121
2510 1043.86500461146 1019.89042700776 1046.34875242132 -14.6779038317777 -29.2615628592087 -34.1261483635323
2515 1048.80526419107 1018.40589586345 1051.62731860133 -15.8547993825748 -26.360611621196 -24.6451700887822
2520 1061.60080373577 1026.62554486607 1063.16745395663 -16.5197820723802 -23.3021726760807 -14.238565326136
2525 1073.85282942526 1035.87953445577 1073.04652374282 -18.5729314997536 -20.4233767035356 -7.04650966251573
2530 1086.758663713 1047.48122109524 1083.86522469334 -23.2388042053446 -19.2742035527735 -5.16308968967797
2535 1100.7027578862 1061.96149911519 1095.847493818 -29.9027523843424 -21.0905758289426 -8.26136081429193
2540 1104.88900951716 1067.25527919561 1095.87447420516 -35.5272421526765 -25.4076359994515 -14.7056493987425
2545 1111.80740616881 1073.06964269645 1095.04479840994 -37.1680819732627 -30.4532477851403 -23.5043165773779
2550 1101.62971239878 1061.61126522181 1077.94691772908 -33.8479367702564 -33.2239647545685 -30.9240532979307
2555 1099.39710576661 1058.9694640872 1073.75862545816 -27.3314912499501 -32.6923086065605 -36.052335444689
2560 1070.65003878763 1033.93621252919 1049.53173869339 -20.5272233271667 -29.7352623598298 -36.318124418912
2565 1050.86652352081 1020.1591331626 1036.88251220891 -15.1389077276159 -25.8079278100376 -32.9558340011735
2570 1011.56861881054 990.60227176722 1005.03638557256 -11.7860854720852 -23.2899801354591 -26.6584117828341
2575 989.710804352462 980.445255706188 989.306918010093 -10.8481943953058 -23.2503318387775 -19.954020578971
2580 957.187259723665 962.529783972892 962.575836013052 -11.4737387172345 -24.6698414054673 -13.6181907911817
2585 951.340422443767 972.301879912522 961.61862458082 -12.4327135898379 -25.867880462525 -8.33344538654247
2590 943.511078038653 981.771904974609 957.402524350268 -11.592549982379 -25.4967054901212 -2.56864038090353
2595 955.743010824277 1011.32400993565 972.517371403232 -8.44246405297575 -23.7957483947721 4.13923766943607
2600 962.47359478773 1033.49610178497 981.634150082147 -4.2412907465965 -21.2656162792708 11.9736673473288
2605 969.653687331904 1050.03301582136 989.65188601046 -1.35579127903897 -19.0527843526919 19.1026434132457
2610 978.304732750639 1058.96774031452 996.864528284888 -0.765209918876863 -18.038088450623 24.5266072496332
2615 976.56577013892 1048.73218599942 992.174153327043 -1.73969362661718 -18.228263787724 27.7863138675144
2620 984.471859604896 1042.59001877179 997.572772658062 -2.59829939774165 -18.8203672907775 27.5124896901418
2625 976.968781302639 1019.42861371546 988.028338331381 -1.92097237534467 -18.0505346851051 23.8524001143318
2630 986.952233588024 1014.9268492888 996.453638151726 0.628721248585029 -14.9335112123022 16.8049432300685
2635 981.260488608217 998.237748010285 988.871997123499 4.96003801114709 -10.4494780594017 7.84690244443807
2640 995.041765365878 1006.66668805981 1003.14429974989 9.73212853504092 -5.73088219200846 -2.09127984038836
2645 995.511662573566 1008.65708480636 1009.01437125261 14.1179058791234 -0.962251473860107 -11.5099009034599
2650 1004.20951096769 1023.44490966338 1030.52589683765 15.9724651224238 4.28987634581506 -18.6102982888272
2655 1000.44830553513 1026.89911386716 1045.64918623017 14.4950836426455 9.80649271145514 -22.9648435764546
2660 997.200200269495 1027.51451383151 1060.53745707025 12.1397252364551 13.2141672681024 -24.7534095419416
2665 997.807510701595 1027.41378864976 1071.92885601502 11.6973080329386 12.0154675172693 -24.2387603764328
2670 991.679170580703 1018.2877840148 1066.45182070679 13.9329388385942 5.25367648186659 -22.4212903285673
2675 997.522149623701 1021.79943758965 1063.75145103928 19.0359809859401 -6.39129039473454 -20.9785999892963
2680 990.390034154559 1016.03804067182 1043.77411412941 25.2425508230554 -19.1962248751476 -19.7035682765965
2685 993.469880636662 1025.33769528801 1033.58585396787 31.2579123367473 -30.4496211668944 -17.7095380878448
2690 987.094823422472 1027.19033054793 1015.13299301049 35.2376247923717 -38.1466788828495 -14.690100332391
2695 995.22654091836 1044.22924410133 1012.62911700554 38.2537850496365 -42.4130316002111 -12.393726651432
2700 984.55889208387 1039.94770853665 991.660288322589 41.3069765875376 -43.0819989092756 -11.0732635242691
2705 994.417625129696 1055.1690249121 993.727556470683 44.9232694523092 -39.8726899146442 -11.4833445814346
2710 986.247309515496 1048.83348704043 980.895240046556 47.320842911594 -31.809397464681 -12.2901626301242
2715 1000.7514728264 1063.47738228678 996.556696320466 47.2876490413796 -21.3676228707867 -13.8431692005068
2720 1003.66540729506 1064.47997916554 1004.28339681416 44.2648504539564 -11.5422091610534 -15.8498082058332
2725 1017.23265898241 1074.35166964816 1022.84213428244 39.1984734408581 -5.10653393568714 -18.6771167749212
2730 1032.45448816143 1082.28593557885 1038.28472193758 32.4326304081434 -1.56071901381308 -22.6169770667619
2735 1043.45105196506 1081.83353649727 1042.39580706886 23.4200130138617 0.535822867628402 -27.3402879517985
2740 1058.10367468772 1081.60630413353 1045.41757085869 11.1578265996379 2.14618357147324 -31.7607579747494
2745 1056.54565911404 1061.92222725384 1031.58550280417 -2.99183597833682 3.60442384403499 -33.8338822382373
2750 1067.98185982704 1052.55640939681 1032.01391097463 -15.975573312701 5.50227953788422 -31.7215206322163
2755 1067.86644863201 1029.61614024711 1022.67991567325 -24.2520171860105 6.92394407848798 -25.6000510086039
2760 1079.14587172717 1018.69367905847 1025.92566923955 -26.5914696103997 5.80103895119422 -17.348574179265
2765 1087.52750304455 1006.21333066444 1027.81882203017 -24.8156041544658 1.09986259766926 -9.91587149359566
2770 1103.78529057786 1005.98304826423 1041.38452553272 -21.0366223975565 -5.61841367340905 -5.57764871923954
2775 1106.25615333725 999.591090531467 1048.19741115546 -16.5674490224299 -12.2224338997189 -4.93941294580492
2780 1100.49147334708 994.154826622257 1054.07699036797 -11.9480070813671 -16.7306423915271 -7.26188549043861
2785 1081.67338891173 983.397589124704 1052.07121841095 -6.22501315735637 -18.286602378278 -10.8573056005949
2790 1055.1817762622 969.385887241801 1042.86432689418 1.23899212052646 -15.5398418590546 -13.6621333252678
2795 1030.44547962044 959.360646756527 1032.84340924446 9.44558312355109 -8.11504969116468 -14.25904050537
2800 1006.34149779093 950.170500880754 1020.30087727259 16.0315790757689 2.56288784112366 -12.3480200682326
2805 1000.13237250527 955.331114598924 1022.32913821403 18.9845149104086 15.0889832923568 -8.99058300021314
2810 985.426636904223 949.489656084217 1014.85798231561 19.0715390007134 26.7516939388643 -4.76290573261367
2815 992.677425127585 961.487484306754 1026.33668800916 16.2254206339372 34.9247582621744 0.11076456666066
2820 983.65571856738 955.064247302361 1018.64775129698 11.8354887884312 38.3506723503119 6.23076461498546
2825 997.559253841258 967.575965352672 1028.64044327906 4.43902439068858 37.2704309273166 12.9963226533795
2830 1006.85125701263 973.708184580786 1029.6062912141 -5.04639119916392 33.2714273513626 19.5344125200005
2835 1028.25943765666 992.055640643941 1039.69024429298 -13.9451957475202 27.7446080135677 23.8896255066243
2840 1037.25463873409 999.003902040791 1035.48896910995 -18.472443546269 21.9769575722628 25.2152896851526
2845 1056.92711993927 1016.786652054 1042.25648347725 -17.1465339906704 17.4478753934447 25.1528192589949
2850 1055.18720259849 1012.96263890716 1028.35674667191 -12.4621998991613 15.0157658049352 24.7385303094056
2855 1059.56599848193 1015.31079682021 1022.91807051054 -7.9739195995726 16.2712442403988 24.7380977112497
2860 1047.69577564566 1003.28478474789 1005.30047346452 -4.8973929156269 19.195041399049 22.9246424421809
2865 1040.70420495975 997.454266212628 996.179709315335 -2.75663007014746 20.6327278518613 18.9038185514018
2870 1035.40652963713 992.608213840314 990.359671027251 -0.661624491109878 18.1924638154626 13.7076185214784
2875 1034.25471849618 989.110568387059 988.674279609159 1.44661636613677 12.5129236872726 9.8010961139069
2880 1044.5364160922 994.60860733806 997.85506236087 2.99472871233664 6.56109788983424 8.61994554319341
2885 1046.64458449028 993.478237418039 1000.1338581828 2.91145692602065 2.67209005576643 9.12565517095241
2890 1061.21310212776 1009.12937190068 1015.98288585592 0.407145459192664 1.65255520130538 10.0352406116124
2895 1059.24786517115 1013.67119075762 1020.6970429159 -3.91854427156507 1.75890423360024 10.7300235903609
2900 1060.87099976213 1024.57193604405 1033.30343091456 -9.16285553503643 1.87527368208882 12.9736862038364
2905 1039.3697896517 1012.13803770693 1026.57003505484 -13.2329396366409 2.84806709799867 16.9959074910364
2910 1035.63281307978 1015.3287443364 1035.04785130561 -13.7573544965547 4.93156523892233 22.8300410528002
2915 1014.42430328179 999.95003125575 1022.41952054356 -10.0070622104037 5.65121776190426 27.6266176820889
2920 1011.02369975654 1002.33630700807 1021.61918107829 -3.46767490063073 2.08424242194516 30.2548773452456
2925 995.045915304043 991.476977626622 1005.24932750267 5.23257453798752 -4.05284996760519 28.8066604041358
2930 995.913057121744 997.457577992103 1005.94144335112 15.3788837781069 -8.93172697237488 25.3493259322744
2935 985.128557823199 992.916174630885 997.29196637548 24.6428328511293 -10.5783614362705 21.6204970619691
2940 987.981481774612 1002.63134985543 1004.14242209843 28.853526417805 -9.2633849712571 20.3668326619352
2945 987.334366179272 1007.25437812646 1008.02942954926 26.3258245993742 -6.31089593714208 20.682604683108
2950 990.530677723345 1012.25993356357 1015.59178183839 17.8824234513311 -2.52496087966156 20.827333232901
2955 998.979293354718 1018.74171106397 1029.72694180519 6.46527236638669 1.1302224233865 19.7734295495972
2960 999.702391248615 1014.68477752754 1038.73376283127 -3.52251779501051 2.71562263348015 17.4802632288616
2965 1012.31949259426 1020.78822727512 1060.43042271921 -8.74659910858055 0.993582371118608 14.499010000551
2970 1011.03109680951 1010.92119537656 1065.76531081918 -8.52761337938247 -2.15602549806678 10.5261994275088
2975 1030.17559872431 1020.11568393579 1087.6195306124 -4.37225875729562 -5.43450333281537 7.03217745405757
2980 1037.65892802212 1017.37013249262 1094.41860651361 -0.0742662848445858 -8.56613040192178 3.84030926740315
2985 1058.47062736633 1030.98395711381 1113.13802379676 2.81313471304685 -13.3870997563523 0.796318797929811
2990 1055.74704493406 1026.26431364922 1108.46325078369 3.81822738085602 -19.0224533693283 -2.90930940714249
2995 1063.24606994985 1037.8078158506 1115.49681807524 4.08528782872489 -25.3494000961626 -6.75134201440825
3000 1049.7586188144 1032.90557209351 1102.80512460187 4.04181233253631 -31.2755923903638 -10.9136986691871
3005 1047.02999368127 1040.25823527867 1100.56183441055 5.97308252915731 -36.9330937984215 -14.7418801800243
3010 1032.07985112152 1033.90804441492 1084.25527046174 11.825461798662 -40.6807024363191 -18.2818193947621
3015 1026.14748833433 1031.93772314854 1072.90297437561 22.3587955123144 -41.9627482539355 -21.2384482104226
3020 1025.77425329704 1030.23926708034 1062.70590407055 35.1194306758659 -41.4051253703485 -23.324612448613
3025 1032.55202483428 1031.45786373948 1057.43659822852 45.5881528126673 -40.838351762471 -24.1388822371502
3030 1052.76937444444 1045.08027144446 1066.5256312307 50.6729801843831 -41.8074013029039 -24.0987442427857
3035 1055.73026115674 1045.77455477736 1063.74890553417 48.8210017608367 -43.9177681413848 -23.41487397288
3040 1065.93364671296 1062.5414818461 1072.90942387823 38.8488240323928 -45.7892996678768 -21.2210452657086
3045 1051.61070052907 1060.24853011849 1060.34176780684 22.4243248532893 -45.6495593349733 -16.6326379666548
3050 1051.34679295755 1072.46179821236 1059.40266476358 3.18743592751285 -42.2018760145409 -12.2389894954738
3055 1035.75903640372 1063.53856745106 1039.90091818662 -14.9514116242175 -36.2452117192355 -9.04109675469387
3060 1034.17798393298 1064.11444345554 1035.23076841956 -26.5836832604853 -29.9761135799384 -8.01130022538389
3065 1017.88903583871 1047.58207779181 1022.5776589527 -30.0896746999807 -25.609528838642 -8.06385583027239
3070 1005.40907560351 1035.92101130064 1022.98218083383 -24.688531117814 -23.9536914279054 -9.68761643475331
3075 988.155037081547 1019.69058054977 1024.0612091634 -13.6129977060658 -23.9494250073432 -12.6999846179736
3080 976.048653990953 1006.89234276064 1027.73485342242 -0.89725464778238 -23.5719943517793 -16.3810962571131
3085 973.597512853124 1000.76230259907 1032.14816535184 10.6027399130399 -21.0806249511464 -19.2644780097449
3090 974.670724973754 994.867828063929 1029.4182163207 18.6850886049652 -16.3727684202331 -19.8740556011892
3095 989.82815391907 1000.51230903392 1033.87359108553 23.2385341596313 -9.76048627837452 -18.5480224238195
3100 993.632046592144 994.49485778767 1024.98811013828 25.7986915608524 -1.48691745096511 -17.0566726265456
3105 1014.1690791368 1005.62166769208 1033.20947509507 28.2044414977391 8.48727153883979 -14.44970716994
3110 1015.7302840602 1000.38330652371 1022.51269723727 31.7234286657155 18.3374137159727 -10.9494273119347
3115 1027.32088132271 1008.71814087069 1024.24057353714 34.3525144685992 24.6465654990526 -7.46769670254673
3120 1022.24382184555 1003.78527396659 1012.71042156609 33.7897279410805 26.5569366237995 -4.3124681482144
3125 1036.5714888714 1017.77042971744 1025.55537081418 27.4906357159591 25.4182871400856 -0.75396931573673
3130 1029.56337652077 1009.11534019846 1021.70026958338 16.2151152808629 24.6346481242395 3.30194511022107
3135 1036.27198350311 1015.31532178415 1036.99734076298 4.27324708060274 26.8807239418305 7.2156594803552
3140 1019.06788399289 1002.76256700128 1032.51491166868 -3.70060365337045 31.1071802868764 12.2724845216335
3145 1002.71592812469 998.053927405544 1031.85085404973 -3.33058241045074 34.2283466530336 18.0996083486815
3150 978.79696128188 990.22212867595 1024.21050625125 4.9851335984939 34.6595226348112 23.315002020343
3155 958.255007063944 986.820560243685 1017.74413110841 18.2346295776073 34.1647516188501 26.2499442887113
3160 939.861025814092 984.067048420142 1009.06431044432 32.1795889621475 34.2247555705748 27.0008846948303
3165 927.05290637449 982.622101865588 1000.41260113775 42.1085796056831 34.1970413277781 26.7248246272119
3170 928.84434730854 990.373874274387 1000.936216786 46.1054133249674 33.0170421772685 25.7992074704941
3175 928.392491859415 990.012995134923 993.746991163205 44.7733493942977 31.2131925428915 23.7409982653762
3180 942.642288158828 1000.12784367496 997.447143201294 39.7066272795989 31.386148723175 20.1710462084296
3185 943.229083421863 991.79637382215 985.876268395712 32.5672892762937 32.8651027596629 15.6474173626025
3190 960.927174290388 999.007395293149 993.757798114229 24.0504912935601 34.3986206187088 9.2389427736381
3195 960.097860884198 986.532415115819 987.227090592592 16.5181425666268 32.8779608629761 0.284729463525552
3200 974.725342851925 993.623395392874 1000.47028569116 9.70662117624565 28.7158731108299 -10.3643342151489
3205 977.702270949844 995.095268675417 1004.57690790363 3.45998077620383 21.7414163788792 -20.716846702597
3210 999.470809368185 1021.37470275124 1027.44866672747 -2.98698025951481 13.8283812317554 -28.7636595917024
3215 1011.9094568991 1038.88817281038 1038.58408890681 -8.49112827901457 5.90487306331012 -33.1993372264167
3220 1036.42349960203 1063.72954005832 1057.26600427298 -12.2919289742019 -0.211337859657361 -31.8027559850625
3225 1051.25382699257 1073.30893598164 1063.33581072648 -12.5829906647864 -4.37266371990165 -24.8639135082444
3230 1071.26364082555 1087.0791537359 1075.50701829881 -8.4888137518478 -6.48132297824665 -14.5098966862681
3235 1075.20449970131 1088.66066555738 1075.53065586891 -1.13987128266275 -6.91320878241555 -3.25807362266267
3240 1066.29012662475 1082.32079085667 1066.52161169228 6.06525358164589 -5.93939581256067 6.34820747761963
3245 1048.91024954928 1068.91023088995 1051.52044291091 10.1164193389917 -3.99018328722732 13.4371036397962
3250 1019.84531654097 1039.78773363444 1025.28489097999 9.99878500275073 -1.68500477753859 18.4140041593361
3255 1008.95013624526 1022.83625962899 1014.78307711162 6.52150303431377 -0.536548518493884 21.9055776255345
3260 990.628138217225 993.615726856082 994.45799938358 2.11605718799606 -0.920995789764179 24.1378349318576
3265 997.07608350199 987.565460342604 997.288805710792 -2.43390899964151 -2.21988899602187 23.6006125310983
3270 989.718997498861 968.1420939802 986.563783456105 -6.88025988300186 -2.49081107861059 19.2582159679871
3275 999.77687312998 970.397923738643 995.727121691714 -10.1664513475503 -1.04169888021386 10.332530545379
3280 993.727040748399 962.473967845981 992.714548337244 -10.432049205161 2.34399486383576 -1.75057040735572
3285 1004.18258302673 978.016775523192 1008.6941613411 -6.18664103355253 6.49848564744664 -13.6643868908898
3290 1007.78769776432 993.070246835726 1018.5209362268 1.82830478116825 10.7774444478299 -22.0124560255447
3295 1018.00877830437 1019.78149519453 1035.63831440663 12.0879528358564 12.9162038721224 -23.6688810309169
3300 1019.26107004722 1040.09278191137 1045.94145487654 22.6499189876639 11.475144969495 -19.2811776569098
3305 1018.27276296789 1055.88957432955 1054.99150813976 30.1801741763481 6.29981704347331 -10.9538090135489
3310 1008.9886286587 1059.13617258733 1055.29466896144 32.2932438200507 -0.145762333408012 -0.740644618275891
3315 994.588391409381 1051.66626948844 1048.26279619515 28.4320045449862 -5.48611491301375 9.50555052201693
3320 991.943887755626 1050.26038974936 1049.93821420617 21.0250639753974 -9.58786397669148 18.993146830422
3325 979.048746774474 1034.9458086664 1039.2597373582 15.1109487643089 -12.1963371075225 26.829415616493
3330 989.713056581904 1038.56773156166 1046.75124869923 15.1249450715376 -13.4135158838108 32.6096879828714
3335 990.516458404603 1027.61373685548 1037.99506476903 21.3160253270116 -12.8845192351275 36.8378616868077
3340 1011.16810989852 1033.34959373475 1041.96361283831 30.8963866702734 -11.5792815504945 38.4582938114771
3345 1013.50029632574 1022.02190296473 1025.05487619847 39.2858395115967 -9.45481218810195 37.1671473767689
3350 1033.21679919727 1034.09216648876 1028.20658898175 45.2467885767531 -8.17092476735022 32.4991847705088
3355 1038.28101697209 1036.05592696656 1020.64614382765 48.0706635437864 -7.67612299786584 26.4941877946051
3360 1047.08363708733 1042.4613278685 1021.1576400598 48.0698908237663 -9.03352680996602 21.9650240161214
3365 1055.9003957459 1046.92390941212 1024.47530364567 46.1320391392325 -11.1093569219142 20.1867376265915
3370 1047.8480901415 1032.81018776297 1013.39501460795 42.9222242133248 -10.8285791533595 19.493585403637
3375 1051.66270333801 1028.93860164688 1016.60651496003 40.3281131027415 -6.88263928677678 17.2364385203246
3380 1034.37173693367 1004.47623069959 1000.80451365545 39.4689767300079 0.300823220933193 12.3075162371873
3385 1037.72342833388 1000.23643125242 1003.7588627579 41.037067820897 7.52157324675037 6.40269773072098
3390 1030.40291320175 988.524475560328 995.758784242517 43.3421806264675 12.7273909145903 1.39434988385525
3395 1044.67788791648 999.244400512 1006.62043679076 45.7093544975517 15.3384413023754 -2.09824905170209
3400 1040.5801193867 995.657206358415 1003.66139766097 48.1289157372082 17.0308944664687 -4.74232254215986
3405 1054.78950326717 1011.63869282552 1022.77796222809 50.6473118128751 18.2142611983258 -6.45252880306754
3410 1051.39872213211 1015.36300805362 1032.00092069851 52.3699573778133 18.7225852826072 -7.02737480830489
3415 1055.46934333511 1030.85802837063 1053.00294104627 51.1088266745769 18.277903268657 -6.20758169372183
3420 1047.24491173047 1038.50272912859 1063.0984954564 46.398835743203 17.2820788020098 -4.6454642801798
3425 1049.37564707274 1056.56219367991 1079.79084301274 38.6960480746498 17.5055542917575 -2.95728662045964
3430 1047.13223601314 1066.68833344886 1085.68879639832 29.9348561823452 18.6576797315082 -1.78814924369766
3435 1050.09178910423 1075.13272712978 1089.62410693318 21.6735432121169 18.3782670196477 -1.65100860796661
[...]
19160 1015.10066777772 1041.27863035528 1034.60969252307 26.8192227784433 19.2606680473272 41.1080975808074
19165 1004.11735992152 1029.73294008192 1033.07384688085 30.1314847699871 17.7199648916538 38.5555103200475
19170 1009.46808657985 1033.27432092349 1048.99607520938 31.6798757877084 15.5910787883049 33.638316115735
19175 1001.5029748385 1023.09400076971 1050.23933787605 30.9841392294865 13.3965044628427 26.7248071423647
19180 1014.63409473892 1034.97609577701 1067.78288181029 26.9631988938522 12.6418032383015 17.5292353468006
19185 1009.40309626578 1032.20168283889 1061.84949892128 20.350186419543 12.9537070122314 6.71575211200163
19190 1019.94582502066 1050.29015101797 1068.38532778413 10.9348681062006 13.1632402432681 -3.73940211267077
19195 1008.39968133253 1048.3522702225 1053.10493162752 0.630549257070299 13.63303305585 -11.8385170654129
19200 1009.5881992275 1057.72095196829 1053.97402929866 -6.96679508945836 15.772061894936 -16.972815460557
19205 998.005282809144 1050.07203241759 1045.73070725166 -10.7212550507445 19.401111307506 -19.126241653993
19210 999.168992966345 1052.1159242532 1050.591603729 -11.7062679089015 23.0724349039913 -19.5984451758993
19215 1002.80404224346 1053.60408745383 1053.37490798956 -12.510267872891 25.7653164576687 -19.6964986003018
19220 1010.57960580176 1055.97693524919 1052.46856464145 -13.7511474587489 27.3741731145773 -18.9812793011906
19225 1027.10383651421 1064.64304117542 1053.19829264265 -14.0942494414639 29.0993755601241 -15.3351296901364
19230 1030.77714581848 1061.0459845582 1038.84397541277 -12.5096675034173 31.6881828321121 -7.83918532914334
19235 1042.25275388873 1067.29708802039 1032.5288727258 -8.01864163283585 35.9936780370015 1.82457881712486
19240 1028.85047767621 1053.03790828929 1005.67303719398 -1.58389919112946 40.7443595452707 9.1136215179851
19245 1024.08193892521 1049.49982836837 991.860967242412 5.4274744345673 45.5683849853808 10.9176517308538
19250 999.935102250246 1028.48994219129 964.789376990452 11.1063608955773 48.3836346633166 5.66470900798804
19255 993.670516077955 1025.41444765112 961.912191465846 13.5078646194184 49.6730145638321 -4.79184821047533
19260 980.311780600939 1014.26592267093 956.709005353032 12.2629143189155 49.9291727304982 -16.9433852811768
19265 981.808725508349 1016.00517388501 966.558743484252 6.68567103048587 51.1789256557378 -25.5093330155489
19270 973.341353008866 1004.7706766906 964.998413347809 -1.10921621048132 52.4211797209586 -28.7104537721666
19275 973.099710551143 1000.1337174755 970.11883531056 -8.51059057586262 52.386961557861 -25.8314696545936
19280 967.876315040074 987.620867937222 969.140548052146 -13.2007659670574 49.564860974735 -18.3741043589805
19285 969.817571484269 980.315808544946 971.307767560278 -15.5430754101286 45.0810639777951 -8.54935599908595
19290 980.770655167518 982.484241704286 976.203405958991 -17.6469796826545 40.2436582368912 1.24953856494018
19295 994.597822821404 990.826093258202 979.120563686857 -21.0470378615091 35.8862651786281 7.96039901476506
19300 1015.49437377126 1010.39525029284 988.674228100715 -25.4524644629708 33.2788274395359 9.78554468878085
19305 1017.97194343994 1014.23609019842 984.927445334831 -28.0720569955297 33.0984584219655 7.80528923122993
19310 1030.10338569123 1027.92896457132 996.328716667665 -26.5948586266637 35.3001421318206 3.78735402669014
19315 1025.05582926995 1021.2539360139 992.822051769694 -21.5185183577403 37.77093970095 0.198927414547365
19320 1042.98494488331 1031.84758149352 1010.41288207383 -15.3891409592913 39.3171119457503 -5.14107900393073
19325 1046.82297743442 1026.81956615398 1013.35822160006 -10.6670746182068 39.6870458159135 -12.1777898493301
19330 1072.80721398316 1045.26274002469 1039.86013697761 -7.99234019169154 38.2943996572425 -19.6227268481333
19335 1076.26298937539 1045.32780728144 1045.58274660273 -6.08212641840907 35.0425022542711 -24.4759431569102
19340 1097.88817868323 1064.48581688906 1067.94929609197 -4.68668185280598 29.5651518629212 -24.7246907621462
19345 1108.37683533962 1071.44224836813 1075.09332548541 -4.30140916872842 22.5691525211298 -21.4730571584945
19350 1121.75205442797 1078.48557843835 1081.87962152836 -5.49421515547748 15.5821047053633 -15.7627018879473
19355 1127.77914983556 1076.60430485563 1081.27370769016 -7.58577273460022 9.36294470527174 -8.90932436122537
19360 1132.36572006248 1074.26539854758 1080.80604964743 -8.87658567788248 4.06067611599831 -1.63034165230851
19365 1130.67084724082 1068.03367634063 1074.63832340484 -7.01782480933876 -0.959333836888682 5.76587461323464
19370 1125.50549561837 1060.90000422217 1064.25911622504 -1.17039711864682 -5.39219839790986 12.2743488478322
19375 1125.2170033744 1061.41399061618 1057.70767433025 6.19086083199857 -7.98916559853294 17.2969493800479
19380 1111.61677369751 1052.32905592797 1039.20995083567 10.684383267884 -7.87299656171544 20.0437202617713
19385 1104.31150126129 1053.54871580369 1030.94465341395 10.5445060032253 -4.46459566313238 20.0845037466613
19390 1080.90805418411 1040.01846843712 1010.94455118045 6.59302390388815 0.351733969741992 17.5485241656267
19395 1071.9799188331 1040.02788004788 1007.24107425942 1.91286647100821 6.84808784533103 14.161858486995
19400 1050.35129561502 1023.54551375766 989.133013355154 -1.14721576572672 13.0881963940323 11.4445272062724
19405 1049.4411490517 1024.0621184952 987.233630430403 0.530610410422743 18.0823950632568 8.65005091357716
19410 1034.17343983917 1007.07753786285 969.590838525926 5.32435948609913 20.0223563300943 3.67428371513021
19415 1042.66741655685 1014.90558331104 977.413928382552 12.3299852569211 17.7624802065915 -4.99505765442186
19420 1033.55085190082 1007.56687015047 974.583949565128 19.2576998717444 11.4895478951053 -16.799104986365
19425 1032.49608363427 1011.6110505705 984.948058452467 26.4217668335911 1.96562920622038 -29.0472739002195
19430 1018.43123651337 1003.26562720399 984.277280289505 32.9234995185991 -8.10520031946598 -39.2607916757231
19435 1013.25829543956 1002.0179288735 989.079187202976 36.2904628370271 -15.1887454731395 -45.2577909271177
19440 1005.99864529965 996.423057708114 986.72454851771 35.3623183211209 -17.5881271614913 -46.7968094620508
19445 1001.82784012044 992.514031430512 983.259846763733 31.1785030663225 -16.667279855855 -43.3602399635301
19450 998.782652966959 990.265736803256 979.109520919784 26.05442337076 -15.6714059004643 -35.5321453645564
19455 985.99736556436 980.940409537557 965.109625307937 22.4842683558015 -17.532786129989 -25.9374176355569
19460 978.623213863689 979.492030416355 956.882380325345 21.3822239817768 -23.4555486712593 -16.6905889487818
19465 959.555110318053 966.872584492687 937.302584984009 22.3250600179118 -31.7717479864401 -9.99774017666634
19470 957.767560027664 970.491755547476 938.274146494718 24.163079836021 -39.2935693737373 -5.3361022854843
19475 943.164892217533 960.841742527527 930.862718206087 26.3013938577959 -43.0959551088538 -1.25428347260994
19480 950.187960987325 970.294267570802 947.860639556008 28.1723536801223 -41.7654060689244 3.48568686709039
19485 955.166586162042 972.061887646704 959.93540222034 28.5864013457981 -35.7648534834194 9.18503708385365
19490 977.365402799208 984.904966072321 985.095789591116 28.4270464430528 -26.8702738143843 15.3816240243886
19495 992.817416236987 986.510074514127 999.6695056581 28.1780182739168 -17.9984156954325 21.028782349796
19500 1017.71805386103 997.678097031762 1020.34260301986 28.7618409640834 -11.9097424875505 24.753283066383
19505 1037.76626686055 1006.48580499079 1033.19500407265 28.1920660592017 -9.89544543775701 26.0850488431089
19510 1057.08078529397 1019.68699114726 1044.45246685811 24.7859194160595 -12.1137672074576 25.4564808102216
19515 1071.36912127947 1034.46407498951 1051.48183652716 18.1021751191589 -16.7233270000976 23.5141777229492
19520 1076.06742188722 1046.2274169263 1050.45608151841 10.1905782192607 -20.2196946699208 20.6994321287069
19525 1083.489199957 1064.28814057512 1052.85229937833 4.0665490097917 -20.5521121670222 17.4936392874472
19530 1081.51845644564 1070.6998873558 1046.17945784546 1.5192414791164 -18.1031898625141 14.5168340618865
19535 1088.77252114429 1080.63650610491 1048.78884097284 4.14474328860212 -14.1564301374689 13.133748647173
19540 1076.87581717831 1066.91876217182 1034.01475130051 10.673978592384 -9.86164458555964 13.8137996002473
19545 1074.1973673024 1058.83770053923 1030.13392794955 19.014007119455 -5.14782642081849 17.6709209313288
19550 1057.75307110043 1035.91916054128 1015.03102733579 24.6417498644495 -0.037040009335875 22.5364871403145
19555 1061.05256787036 1029.48610848877 1020.0568926646 26.0374060828458 4.50659738074358 28.6677605764589
19560 1046.54302211672 1003.68365691827 1007.87674949445 25.1109676714638 7.98294092869093 34.4524851853597
19565 1051.63580534062 996.932356513146 1015.32679580487 23.2938847125137 9.96670930858125 42.5913662759265
19570 1038.55255374494 976.799767010571 1006.23521968686 19.5979080902689 11.7783734079993 50.3442160313702
19575 1041.5276929535 979.824183481422 1014.25765124881 11.791837686043 13.823246692769 56.361632635674
19580 1024.51099629455 971.097722460234 1004.93349285896 -0.042874675003463 16.2072995966727 55.792988159427
19585 1011.077534232 973.721409378734 1002.01139896059 -12.4819933187701 18.2262677071265 49.0772099932541
19590 992.90428564912 977.68296145791 998.265862507751 -21.5040190911275 19.9269738479193 38.5173576406124
19595 982.964009957449 991.561860948124 1004.81755048288 -24.1529405293983 21.3752352313137 27.8255955077034
19600 983.408780308305 1012.78810332998 1020.68090159693 -20.7507071713884 21.2696327974893 18.4123373202147
19605 986.100821666638 1028.3694990263 1034.83193892911 -13.753114165897 17.5495981964588 10.9831025842006
19610 999.03021603794 1044.74005241359 1054.19739040804 -5.19050048628517 9.45832567945166 6.57766173275739
19615 1005.94246446897 1046.45061167746 1061.01498976689 3.61390999710637 -1.34008528660166 5.49107803755705
19620 1015.07309701292 1046.74434491265 1063.46328298388 11.4102083902698 -11.9139736868022 6.40426593955374
19625 1012.8248070194 1037.1498481665 1048.03283320498 16.4304196912845 -19.6030381675765 7.00470156738282
19630 1023.76379296296 1046.76082163602 1043.07552953943 18.3160157058936 -23.0923035544716 6.8347771817617
19635 1012.79078645646 1041.33089036015 1016.18451511613 17.4296398810569 -22.0687220208267 5.87222053827702
19640 1019.1827659634 1057.89589676384 1010.99031331637 14.8343212656015 -18.1818751662 6.25524233398541
19645 1012.25526396152 1059.40623276651 996.379184391552 10.5367837937003 -12.5657625698753 8.6652011334557
19650 1026.21942330314 1073.92547786654 1006.27000812914 5.62502466279229 -6.88027262620687 13.5037861888262
19655 1028.06536647361 1067.31106262585 1008.40900133263 -0.010152764956151 -2.5403817055991 18.3736598767021
19660 1039.55852804682 1064.60775854863 1024.8611781658 -4.72561052603287 -1.75741480323993 21.698213511535
19665 1045.66905282373 1055.84412406071 1039.34988345064 -8.19244822960794 -3.94757405762109 23.2682169861089
19670 1049.40354345082 1047.34918192285 1051.93348258604 -9.05716003725449 -6.99952782453681 23.7937936199063
19675 1053.98320194668 1042.86758346964 1064.38198639124 -6.00721149324981 -10.1424240660807 23.9272483873596
19680 1045.79934644048 1029.59565471702 1062.33379918014 0.619582197507371 -13.3949932554125 24.2365973086171
19685 1042.49071337343 1023.84803926002 1061.86871245401 9.71446712564333 -16.7663389031706 25.7871905666951
19690 1023.73142119402 1003.06667973409 1042.14874131867 17.6329203235552 -19.7130603832329 29.0038754994167
19695 1014.36161467735 989.827559858182 1030.22854907502 22.0520451582183 -22.4245398643036 32.3719370250117
19700 1001.56181439611 971.001525105145 1016.51622956631 22.7298020431396 -24.6838618974686 33.0932699210343
19705 1010.10417924096 971.525854123282 1025.54563523884 21.9060717295123 -25.7648230748211 29.4774399651917
19710 1005.00754506471 959.375273488829 1023.12176645037 21.4818363014146 -24.0519316405348 22.5651049451887
19715 1023.04216472658 973.7010638867 1043.79144598978 22.6585209042948 -20.4182565884362 13.8388705914861
19720 1024.78439173424 977.645283339791 1049.26189350118 24.7535744058726 -15.9858056934243 4.8627186526107
19725 1036.8166750308 997.130839798927 1063.64782402204 28.2872952641788 -12.9431983722461 -3.74216286646605
19730 1029.66488000219 1001.64809078615 1058.44286065536 32.4835774346679 -11.1146308385895 -12.4599316077488
19735 1030.17582302189 1014.05548657765 1060.36449505452 37.5233183983315 -10.7119375258051 -21.014394901498
19740 1016.90590557009 1010.35940362829 1049.57426430703 42.55849291749 -11.1261820965182 -29.7932336881711
19745 1009.00227125331 1006.4976517342 1044.13017267084 47.3035260185596 -11.456463964495 -36.5271316263835
19750 996.630159378149 993.52968592084 1031.39096047713 50.6837676760404 -10.0862592629217 -38.7725290603684
19755 988.968473048109 981.003539578831 1017.98675897177 51.26002275104 -6.10458962010002 -34.9618770339076
19760 983.585274298216 966.892249592685 1001.07814937902 48.5715978011357 -0.642788472341205 -26.5480641291321
19765 982.450249737104 954.596793895293 984.476098884114 42.8940293025152 4.54726817955922 -16.7001618122953
19770 992.380566240726 953.053285914231 977.014827110926 34.9491373141427 9.49332618245389 -7.6071015957018
19775 997.2737718578 949.56235887641 965.119813271246 26.3217605310205 14.655389765453 -1.09759344635334
19780 1017.74107997817 966.369423059318 969.802119380354 17.8350399225767 20.6674982904782 2.96528975244021
19785 1021.43889917216 972.072049636673 960.770241749009 9.73346887904696 26.7669625149421 5.12508145846423
19790 1036.42420132436 993.760232382931 967.105606375744 0.948609324496493 32.2863433341249 6.20377494619678
19795 1029.66600401897 998.631129217282 961.405171399921 -8.18556476484102 36.5932918896319 6.21433476720735
19800 1040.09227734908 1025.11358338727 982.687288497337 -16.2740288691862 39.1872412420668 4.19280681991367
19805 1030.21161978519 1033.95932836334 991.366640202747 -22.244798912495 39.2290138460998 0.957690626578148
19810 1039.91007047656 1057.39310746987 1018.09691223895 -26.2166919288696 35.09833216831 -3.30967260809955
19815 1031.69031845959 1053.79877696876 1021.28624378739 -28.8733311027019 26.1800085800037 -6.45085089452525
19820 1045.39080563592 1058.35411520905 1037.18735188819 -30.55713058836 12.8611039668905 -8.65203787599038
19825 1042.13295128161 1038.94627612649 1032.965754673 -31.5788554293326 -2.3867271024788 -8.53804493984741
19830 1050.32776782825 1029.51977014946 1039.93072540316 -34.0440508174465 -15.5173226498525 -6.22120473613831
19835 1045.64241830815 1010.43300305028 1035.76134464927 -38.5904151678588 -24.7750689628649 -1.19418946215954
19840 1048.61343681376 1001.92687890569 1038.89922438112 -43.5105371417385 -29.4513891471342 5.03355668332286
19845 1047.28076070667 992.059127408727 1038.84559021206 -46.0597132877816 -29.1047467672802 10.0396591253441
19850 1047.92446320713 988.023038127864 1043.42044190026 -45.2505446446914 -23.2416772010098 10.9694289860665
19855 1054.37915813534 993.045822374431 1055.81363169031 -41.4471025600707 -13.4682152100583 7.04484113401863
19860 1058.60645618463 996.588176155528 1065.5329487578 -35.7818020218146 -4.72386998151952 -0.684239979010916
19865 1074.69373586841 1011.47867479242 1084.98028504724 -29.9266061895416 -1.22106255622023 -11.2436324090304
19870 1080.10167919202 1016.28758923107 1091.96484767718 -26.2426086960506 -5.07269664908276 -23.0559670039408
19875 1095.1743925821 1032.43891783069 1106.92642564529 -28.6366791735609 -15.2399770176998 -35.3427875517302
19880 1090.66135434062 1029.99807368643 1099.34792177675 -37.6480636682335 -26.5258688445622 -46.1603481408628
19885 1095.4828139794 1035.37662176773 1097.78915765818 -51.7639674162896 -34.6961206055355 -51.6204429208157
19890 1076.3424858846 1013.66867575974 1070.087415677 -64.4567687842597 -38.0920621800552 -48.9617429779362
19895 1072.5037550056 1001.4648155486 1057.3189222448 -72.6771391336965 -34.7966395018766 -37.878863186552
19900 1059.89910025435 977.951518258124 1037.45129686587 -75.0731446995563 -25.2058923272126 -22.7778727848147
19905 1061.62523649461 970.8511805826 1035.26583601689 -72.8642950095692 -11.3263814466652 -9.12063174716056
19910 1051.59326735541 958.390159426775 1024.18104513766 -68.068050433075 3.08992526707546 -0.353904408161452
19915 1054.76163072911 963.575411849483 1026.96903419345 -63.3038338407749 14.7764541973708 1.32199708574023
19920 1056.40191471245 968.951578440239 1029.16642020328 -58.8426857745659 23.6919896181894 -2.63023382162046
19925 1063.08793952517 978.607071363307 1036.41454518345 -54.4071780370032 29.8644865178933 -10.010701584213
19930 1075.1146232014 993.85712247223 1047.08207488389 -50.374575769081 32.5252428410805 -19.2207068021351
19935 1083.10172993527 1007.10412084178 1051.13285682075 -48.2558223092212 30.9888709086527 -28.9541644802942
19940 1096.77385728008 1027.2638467029 1058.52787879774 -49.1240246085397 25.4335618262053 -38.2835360759053
19945 1091.86424034147 1029.86331120634 1048.08901605922 -51.2006058160059 17.8025116838354 -45.1119435655755
19950 1097.19144672057 1041.99017906176 1047.23017444095 -52.463841421315 7.68648171693503 -49.2698265511783
19955 1082.09398177812 1033.75399104743 1027.7224515184 -48.9589051628911 -1.25776605090875 -51.2592080716944
19960 1080.16833875749 1037.26326111156 1022.22157381938 -40.4695066397391 -8.1590554141351 -52.1795941530245
19965 1062.16851215911 1022.98851964356 1003.98201290692 -28.4617622492377 -12.7511521141241 -52.0902991671533
19970 1056.18425737961 1018.93294846458 1002.25657824957 -17.4474491884976 -17.1165134537589 -50.8818348732244
19975 1038.63028577985 1002.76295714399 993.446321025845 -9.8333698262844 -21.9919279091611 -47.8638768732709
19980 1030.25404900738 994.745849440391 995.299432536205 -7.08019518180911 -27.3469225708838 -42.6954511583124
19985 1022.95144452169 985.152291060725 996.365177121261 -7.42857118922687 -31.7941743292162 -36.5001748384968
19990 1020.66920141348 978.365701747005 998.079073896677 -8.45166916828151 -33.7418490689435 -31.5870736875423
19995 1023.32694222129 977.880908612678 1002.09980356133 -8.5150549904613 -32.7558878202325 -29.4348357244185
20000 1017.85096538253 973.748305243043 1000.02916460862 -7.09426076723516 -29.807355780516 -29.9120642018716
   20000    85.500412    997.20948   -7.0942608   -29.807356   -29.912064     1017.851    973.74831    1000.0292   -7.0942608   -29.807356   -29.912064 
Loop time of 425.857 on 32 procs for 20000 steps with 4000 atoms

Performance: 16.231 ns/day, 1.479 hours/ns, 46.964 timesteps/s
64.1% CPU use with 4 MPI tasks x 8 OpenMP threads

MPI task timing breakdown:
Section |  min time  |  avg time  |  max time  |%varavg| %total
---------------------------------------------------------------
Pair    | 41.898     | 78.979     | 134.18     | 432.0 | 18.55
Neigh   | 1.5746     | 3.3006     | 6.057      | 103.0 |  0.78
Comm    | 207.73     | 249.02     | 287.27     | 209.1 | 58.48
Output  | 0.00043511 | 0.0016067  | 0.0020468  |   1.7 |  0.00
Modify  | 59.908     | 66.829     | 72.948     |  57.3 | 15.69
Other   |            | 27.73      |            |       |  6.51

Nlocal:    1000 ave 1012 max 992 min
Histogram: 2 0 0 0 0 0 1 0 0 1
Nghost:    5835.75 ave 5845 max 5823 min
Histogram: 1 0 0 1 0 0 0 0 0 2
Neighs:    180926 ave 185890 max 177494 min
Histogram: 2 0 0 0 0 1 0 0 0 1

Total # of neighbors = 723703
Ave neighs/atom = 180.926
Neighbor list builds = 423
Dangerous builds = 0
variable	v equal (v_v11+v_v22+v_v33)/3.0
variable	ndens equal count(all)/vol
print		"average viscosity: $v [Pa.s] @ $T K, ${ndens} /A^3"
average viscosity: 0.000650935675476207 [Pa.s] @ 86.4956 K, 0.0257443666020476 /A^3
print		"volume of the simulation box is ${V}"
volume of the simulation box is 155373.797376





Total wall time: 0:09:28
